# Force       
# CofR        : (0.000000e+00 0.000000e+00 0.000000e+00)
#
# Time        	total_x total_y total_z	pressure_x pressure_y pressure_z	viscous_x viscous_y viscous_z
0.999969       7.059234e-02 -7.323588e-02 1.656068e-20 1.768558e-02 -7.290158e-02 3.521148e-22 5.290676e-02 -3.342964e-04 1.620856e-20
2.000144       6.577428e-02 -7.709991e-02 4.081341e-20 1.913761e-02 -7.636504e-02 3.456219e-22 4.663667e-02 -7.348633e-04 4.046778e-20
3.0007978      6.455003e-02 -7.287819e-02 8.957859e-20 1.904313e-02 -7.206185e-02 3.618043e-22 4.550690e-02 -8.163453e-04 8.921679e-20
3.99974342     6.410708e-02 -6.887719e-02 8.394932e-20 1.893848e-02 -6.805910e-02 3.631569e-22 4.516861e-02 -8.180821e-04 8.358616e-20
4.99931711     6.385352e-02 -6.593355e-02 8.321323e-20 1.883074e-02 -6.513424e-02 3.586225e-22 4.502278e-02 -7.993037e-04 8.285461e-20
5.9991312      6.367575e-02 -6.355695e-02 6.520510e-20 1.874835e-02 -6.278950e-02 3.514796e-22 4.492740e-02 -7.674491e-04 6.485362e-20
7.000560679    6.362590e-02 -6.205139e-02 6.245009e-20 1.873116e-02 -6.131213e-02 3.460454e-22 4.489474e-02 -7.392625e-04 6.210404e-20
