# Moment      
# CofR        : (0.000000e+00 0.000000e+00 0.000000e+00)
#
# Time        	total_x total_y total_z	pressure_x pressure_y pressure_z	viscous_x viscous_y viscous_z
0.999969       -3.661794e-02 -3.529617e-02 -1.891769e-02 -3.645079e-02 -8.842792e-03 -1.942847e-02 -1.671482e-04 -2.645338e-02 5.107807e-04
2.000144       -3.854995e-02 -3.288714e-02 -1.966877e-02 -3.818252e-02 -9.568804e-03 -1.999329e-02 -3.674317e-04 -2.331834e-02 3.245153e-04
3.0007978      -3.643910e-02 -3.227502e-02 -1.721626e-02 -3.603092e-02 -9.521565e-03 -1.747586e-02 -4.081726e-04 -2.275345e-02 2.595980e-04
3.99974342     -3.443859e-02 -3.205354e-02 -1.537052e-02 -3.402955e-02 -9.469238e-03 -1.560192e-02 -4.090411e-04 -2.258430e-02 2.313964e-04
4.99931711     -3.296677e-02 -3.192676e-02 -1.416242e-02 -3.256712e-02 -9.415370e-03 -1.438242e-02 -3.996519e-04 -2.251139e-02 2.199995e-04
5.9991312      -3.177847e-02 -3.183788e-02 -1.332247e-02 -3.139475e-02 -9.374177e-03 -1.354079e-02 -3.837245e-04 -2.246370e-02 2.183146e-04
7.000560679    -3.102569e-02 -3.181295e-02 -1.283938e-02 -3.065606e-02 -9.365581e-03 -1.306036e-02 -3.696313e-04 -2.244737e-02 2.209866e-04
