# Force       
# CofR        : (0.000000e+00 0.000000e+00 0.000000e+00)
#
# Time        	total_x total_y total_z	pressure_x pressure_y pressure_z	viscous_x viscous_y viscous_z
0.100294       1.634126e-01 -5.252667e-02 9.817431e-21 1.891071e-02 -5.548814e-02 3.889607e-22 1.445019e-01 2.961472e-03 9.428470e-21
0.199919       1.170890e-01 -5.652427e-02 3.737417e-20 1.608647e-02 -5.793097e-02 3.441388e-22 1.010026e-01 1.406700e-03 3.703003e-20
0.300617       9.891551e-02 -6.001087e-02 5.659652e-20 1.560498e-02 -6.083885e-02 3.462058e-22 8.331053e-02 8.279835e-04 5.625031e-20
0.399542       8.924649e-02 -6.263305e-02 6.467106e-20 1.568545e-02 -6.313211e-02 3.460412e-22 7.356104e-02 4.990543e-04 6.432502e-20
0.500761       8.303193e-02 -6.506476e-02 5.314815e-20 1.596281e-02 -6.533012e-02 3.437324e-22 6.706912e-02 2.653596e-04 5.280442e-20
0.599855       7.888706e-02 -6.720688e-02 3.721723e-20 1.630483e-02 -6.729972e-02 3.467925e-22 6.258223e-02 9.283919e-05 3.687044e-20
0.701074       7.584481e-02 -6.910027e-02 2.413778e-20 1.667128e-02 -6.905547e-02 3.518077e-22 5.917353e-02 -4.480526e-05 2.378597e-20
0.800075       7.363091e-02 -7.067796e-02 1.280891e-20 1.702374e-02 -7.052090e-02 3.554743e-22 5.660717e-02 -1.570506e-04 1.245343e-20
0.898995       7.193618e-02 -7.202289e-02 2.911252e-21 1.735958e-02 -7.177082e-02 3.557882e-22 5.457660e-02 -2.520748e-04 2.555464e-21
0.999969       7.059234e-02 -7.323588e-02 1.656068e-20 1.768558e-02 -7.290158e-02 3.521148e-22 5.290676e-02 -3.342964e-04 1.620856e-20
1.10084        6.954306e-02 -7.435074e-02 3.690088e-20 1.799295e-02 -7.394671e-02 3.459741e-22 5.155011e-02 -4.040248e-04 3.655490e-20
1.19947        6.873660e-02 -7.537756e-02 4.560776e-20 1.827048e-02 -7.491397e-02 3.397749e-22 5.046612e-02 -4.635912e-04 4.526798e-20
1.30013        6.808668e-02 -7.631103e-02 4.560533e-20 1.852002e-02 -7.579400e-02 3.350697e-22 4.956666e-02 -5.170309e-04 4.527026e-20
1.4007         6.757031e-02 -7.711701e-02 4.662213e-20 1.872684e-02 -7.655313e-02 3.327242e-22 4.884347e-02 -5.638712e-04 4.628941e-20
1.49904        6.715780e-02 -7.766417e-02 4.966659e-20 1.888200e-02 -7.705983e-02 3.325460e-22 4.827581e-02 -6.043415e-04 4.933404e-20
1.59942        6.680289e-02 -7.793042e-02 5.239845e-20 1.899358e-02 -7.729017e-02 3.340007e-22 4.780931e-02 -6.402442e-04 5.206445e-20
1.69971        6.649699e-02 -7.794356e-02 5.033739e-20 1.906589e-02 -7.727305e-02 3.364608e-22 4.743110e-02 -6.705129e-04 5.000093e-20
1.79992        6.622763e-02 -7.776410e-02 4.761472e-20 1.910808e-02 -7.706822e-02 3.394649e-22 4.711956e-02 -6.958793e-04 4.727526e-20
1.90006        6.598825e-02 -7.746477e-02 4.437789e-20 1.912966e-02 -7.674772e-02 3.425935e-22 4.685859e-02 -7.170520e-04 4.403530e-20
2.000144       6.577428e-02 -7.709991e-02 4.081341e-20 1.913761e-02 -7.636504e-02 3.456219e-22 4.663667e-02 -7.348633e-04 4.046778e-20
2.100166       6.558356e-02 -7.670907e-02 3.981867e-20 1.913774e-02 -7.595904e-02 3.483525e-22 4.644583e-02 -7.500337e-04 3.947031e-20
2.200138       6.541327e-02 -7.630529e-02 3.760864e-20 1.913292e-02 -7.554226e-02 3.507965e-22 4.628034e-02 -7.630303e-04 3.725785e-20
2.300066       6.526104e-02 -7.589946e-02 4.135498e-20 1.912508e-02 -7.512522e-02 3.529691e-22 4.613596e-02 -7.742320e-04 4.100201e-20
2.399954       6.512458e-02 -7.548570e-02 4.784487e-20 1.911517e-02 -7.470185e-02 3.548688e-22 4.600941e-02 -7.838480e-04 4.749000e-20
2.499807       6.500210e-02 -7.506236e-02 5.709140e-20 1.910396e-02 -7.427028e-02 3.565259e-22 4.589814e-02 -7.920815e-04 5.673487e-20
2.59963        6.489210e-02 -7.463250e-02 6.107259e-20 1.909207e-02 -7.383346e-02 3.579563e-22 4.580003e-02 -7.990397e-04 6.071463e-20
2.699424       6.479312e-02 -7.419932e-02 7.037615e-20 1.907980e-02 -7.339451e-02 3.591820e-22 4.571332e-02 -8.048084e-04 7.001697e-20
2.799195       6.470387e-02 -7.375786e-02 7.673423e-20 1.906732e-02 -7.294834e-02 3.602256e-22 4.563655e-02 -8.095206e-04 7.637400e-20
2.898945       6.462376e-02 -7.332264e-02 8.187856e-20 1.905526e-02 -7.250934e-02 3.610787e-22 4.556850e-02 -8.133009e-04 8.151749e-20
3.0007978      6.455003e-02 -7.287819e-02 8.957859e-20 1.904313e-02 -7.206185e-02 3.618043e-22 4.550690e-02 -8.163453e-04 8.921679e-20
3.1005132      6.448487e-02 -7.244574e-02 9.645945e-20 1.903147e-02 -7.162713e-02 3.623747e-22 4.545340e-02 -8.186121e-04 9.609707e-20
3.2002154      6.442602e-02 -7.201725e-02 9.949206e-20 1.902019e-02 -7.119700e-02 3.628190e-22 4.540584e-02 -8.202504e-04 9.912925e-20
3.2999067      6.437270e-02 -7.159347e-02 1.021286e-19 1.900918e-02 -7.077214e-02 3.631528e-22 4.536352e-02 -8.213317e-04 1.017654e-19
3.3995893      6.432435e-02 -7.117781e-02 1.062597e-19 1.899852e-02 -7.035590e-02 3.633782e-22 4.532583e-02 -8.219134e-04 1.058964e-19
3.4992655      6.428034e-02 -7.076971e-02 1.048121e-19 1.898813e-02 -6.994765e-02 3.635122e-22 4.529221e-02 -8.220640e-04 1.044486e-19
3.6010579      6.423931e-02 -7.036202e-02 9.939155e-20 1.897778e-02 -6.954019e-02 3.635720e-22 4.526153e-02 -8.218307e-04 9.902798e-20
3.7007274      6.420244e-02 -6.997455e-02 9.712913e-20 1.896782e-02 -6.915329e-02 3.635529e-22 4.523462e-02 -8.212652e-04 9.676558e-20
3.8003967      6.416841e-02 -6.959692e-02 9.079294e-20 1.895801e-02 -6.877650e-02 3.634754e-22 4.521041e-02 -8.204249e-04 9.042947e-20
3.900068       6.413672e-02 -6.923091e-02 8.645669e-20 1.894821e-02 -6.841156e-02 3.633413e-22 4.518851e-02 -8.193471e-04 8.609335e-20
3.99974342     6.410708e-02 -6.887719e-02 8.394932e-20 1.893848e-02 -6.805910e-02 3.631569e-22 4.516861e-02 -8.180821e-04 8.358616e-20
4.09942497     6.407916e-02 -6.853919e-02 8.420057e-20 1.892878e-02 -6.772251e-02 3.629216e-22 4.515038e-02 -8.166860e-04 8.383765e-20
4.19911466     6.405249e-02 -6.821372e-02 8.594020e-20 1.891894e-02 -6.739852e-02 3.626472e-22 4.513355e-02 -8.152055e-04 8.557756e-20
4.30093582     6.402627e-02 -6.789666e-02 8.945962e-20 1.890876e-02 -6.708301e-02 3.623289e-22 4.511750e-02 -8.136535e-04 8.909729e-20
4.40064795     6.400124e-02 -6.760075e-02 9.633638e-20 1.889858e-02 -6.678865e-02 3.619798e-22 4.510266e-02 -8.121019e-04 9.597440e-20
4.50037442     6.397646e-02 -6.731416e-02 1.003676e-19 1.888802e-02 -6.650367e-02 3.615947e-22 4.508844e-02 -8.104925e-04 1.000060e-19
4.60011779     6.395176e-02 -6.703466e-02 1.005090e-19 1.887707e-02 -6.622591e-02 3.611526e-22 4.507468e-02 -8.087567e-04 1.001478e-19
4.69988093     6.392709e-02 -6.675925e-02 9.881472e-20 1.886581e-02 -6.595243e-02 3.606357e-22 4.506127e-02 -8.068173e-04 9.845409e-20
4.79966681     6.390246e-02 -6.648546e-02 9.479254e-20 1.885432e-02 -6.568086e-02 3.600378e-22 4.504815e-02 -8.046039e-04 9.443250e-20
4.89947817     6.387783e-02 -6.620977e-02 8.790907e-20 1.884253e-02 -6.540767e-02 3.593577e-22 4.503530e-02 -8.020933e-04 8.754971e-20
4.99931711     6.385352e-02 -6.593355e-02 8.321323e-20 1.883074e-02 -6.513424e-02 3.586225e-22 4.502278e-02 -7.993037e-04 8.285461e-20
5.09918483     6.382994e-02 -6.565994e-02 7.711528e-20 1.881928e-02 -6.486365e-02 3.578541e-22 4.501066e-02 -7.962947e-04 7.675742e-20
5.19908149     6.380717e-02 -6.539055e-02 7.340820e-20 1.880816e-02 -6.459742e-02 3.570690e-22 4.499901e-02 -7.931363e-04 7.305113e-20
5.29900637     6.378558e-02 -6.512879e-02 7.092081e-20 1.879768e-02 -6.433889e-02 3.562936e-22 4.498789e-02 -7.899022e-04 7.056452e-20
5.39895805     6.376537e-02 -6.487636e-02 7.076941e-20 1.878801e-02 -6.408972e-02 3.555391e-22 4.497736e-02 -7.866404e-04 7.041387e-20
5.50106219     6.374620e-02 -6.462730e-02 6.854112e-20 1.877897e-02 -6.384399e-02 3.547973e-22 4.496724e-02 -7.833124e-04 6.818632e-20
5.60106253     6.372901e-02 -6.439379e-02 6.812499e-20 1.877105e-02 -6.361371e-02 3.540959e-22 4.495796e-02 -7.800770e-04 6.777090e-20
5.69895583     6.371367e-02 -6.417445e-02 6.599088e-20 1.876417e-02 -6.339752e-02 3.534289e-22 4.494950e-02 -7.769309e-04 6.563745e-20
5.79899665     6.369956e-02 -6.395905e-02 6.627995e-20 1.875807e-02 -6.318531e-02 3.527661e-22 4.494149e-02 -7.737406e-04 6.592718e-20
5.89905557     6.368694e-02 -6.375362e-02 6.493019e-20 1.875282e-02 -6.298304e-02 3.521160e-22 4.493412e-02 -7.705790e-04 6.457807e-20
5.9991312      6.367575e-02 -6.355695e-02 6.520510e-20 1.874835e-02 -6.278950e-02 3.514796e-22 4.492740e-02 -7.674491e-04 6.485362e-20
6.09922227     6.366599e-02 -6.336950e-02 6.440871e-20 1.874467e-02 -6.260515e-02 3.508541e-22 4.492133e-02 -7.643572e-04 6.405786e-20
6.1993276      6.365752e-02 -6.319180e-02 6.478572e-20 1.874161e-02 -6.243049e-02 3.502406e-22 4.491591e-02 -7.613113e-04 6.443547e-20
6.29944607     6.365025e-02 -6.302288e-02 6.455310e-20 1.873912e-02 -6.226456e-02 3.496416e-22 4.491113e-02 -7.583206e-04 6.420346e-20
6.39957663     6.364410e-02 -6.286283e-02 6.404055e-20 1.873710e-02 -6.210744e-02 3.490602e-22 4.490700e-02 -7.553916e-04 6.369149e-20
6.49971828     6.363898e-02 -6.271048e-02 6.287727e-20 1.873547e-02 -6.195795e-02 3.484984e-22 4.490351e-02 -7.525259e-04 6.252877e-20
6.59987006     6.363480e-02 -6.256557e-02 6.207534e-20 1.873416e-02 -6.181584e-02 3.479577e-22 4.490063e-02 -7.497288e-04 6.172738e-20
6.70003104     6.363149e-02 -6.242756e-02 6.164704e-20 1.873315e-02 -6.168056e-02 3.474414e-22 4.489835e-02 -7.470022e-04 6.129960e-20
6.80020037     6.362893e-02 -6.229601e-02 6.042290e-20 1.873231e-02 -6.155167e-02 3.469505e-22 4.489663e-02 -7.443476e-04 6.007595e-20
6.90037718     6.362711e-02 -6.217071e-02 6.180145e-20 1.873167e-02 -6.142895e-02 3.464853e-22 4.489544e-02 -7.417670e-04 6.145496e-20
7.000560679    6.362590e-02 -6.205139e-02 6.245009e-20 1.873116e-02 -6.131213e-02 3.460454e-22 4.489474e-02 -7.392625e-04 6.210404e-20
7.100750081    6.362532e-02 -6.193800e-02 6.070250e-20 1.873081e-02 -6.120116e-02 3.456304e-22 4.489450e-02 -7.368363e-04 6.035687e-20
7.200944635    6.362525e-02 -6.183036e-02 6.293427e-20 1.873056e-02 -6.109587e-02 3.452390e-22 4.489469e-02 -7.344897e-04 6.258903e-20
7.299011685    6.362569e-02 -6.173051e-02 6.340917e-20 1.873044e-02 -6.099823e-02 3.448779e-22 4.489525e-02 -7.322719e-04 6.306429e-20
7.399214332    6.362665e-02 -6.163417e-02 6.343026e-20 1.873046e-02 -6.090408e-02 3.445303e-22 4.489619e-02 -7.300872e-04 6.308573e-20
7.49942006     6.362806e-02 -6.154324e-02 6.353011e-20 1.873060e-02 -6.081526e-02 3.442036e-22 4.489746e-02 -7.279854e-04 6.318591e-20
7.59962823     6.362988e-02 -6.145749e-02 6.376530e-20 1.873084e-02 -6.073153e-02 3.438971e-22 4.489904e-02 -7.259657e-04 6.342140e-20
7.699838226    6.363211e-02 -6.137691e-02 6.326460e-20 1.873120e-02 -6.065288e-02 3.436091e-22 4.490091e-02 -7.240274e-04 6.292099e-20
7.800049458    6.363472e-02 -6.130111e-02 6.451924e-20 1.873167e-02 -6.057894e-02 3.433399e-22 4.490305e-02 -7.221688e-04 6.417590e-20
7.900261365    6.363769e-02 -6.122999e-02 6.403973e-20 1.873225e-02 -6.050960e-02 3.430881e-22 4.490544e-02 -7.203890e-04 6.369665e-20
