# Force       
# CofR        : (0.000000e+00 0.000000e+00 0.000000e+00)
#
# Time        	total_x total_y total_z	pressure_x pressure_y pressure_z	viscous_x viscous_y viscous_z
0.100186       5.898513e-02 2.379914e-01 2.707537e-20 2.674186e-02 2.425748e-01 1.629817e-21 3.224326e-02 -4.583459e-03 2.544555e-20
0.200156       5.459663e-02 2.621836e-01 1.254077e-20 2.840571e-02 2.657209e-01 1.520935e-21 2.619092e-02 -3.537351e-03 1.101983e-20
0.299928       5.292740e-02 2.835443e-01 -5.052557e-21 3.045858e-02 2.863913e-01 1.504249e-21 2.246882e-02 -2.846946e-03 -6.556806e-21
0.400692       5.156368e-02 2.989075e-01 -1.261704e-20 3.177674e-02 3.012258e-01 1.531883e-21 1.978694e-02 -2.318376e-03 -1.414892e-20
0.499493       5.057185e-02 3.113624e-01 -1.443071e-20 3.283588e-02 3.132601e-01 1.584782e-21 1.773597e-02 -1.897763e-03 -1.601549e-20
0.60043        4.981430e-02 3.226216e-01 -1.917893e-20 3.379556e-02 3.241608e-01 1.644396e-21 1.601874e-02 -1.539183e-03 -2.082333e-20
0.700655       4.923949e-02 3.324788e-01 -2.181327e-20 3.466723e-02 3.337126e-01 1.702058e-21 1.457226e-02 -1.233771e-03 -2.351532e-20
0.800259       4.876570e-02 3.411545e-01 -2.307574e-20 3.544731e-02 3.421220e-01 1.747330e-21 1.331839e-02 -9.674937e-04 -2.482307e-20
0.899324       4.844773e-02 3.490170e-01 -2.662192e-20 3.623760e-02 3.497488e-01 1.792048e-21 1.221013e-02 -7.318276e-04 -2.841397e-20
0.999325       4.814952e-02 3.558463e-01 -2.380957e-20 3.694370e-02 3.563659e-01 1.828351e-21 1.120581e-02 -5.196454e-04 -2.563792e-20
1.10033        4.791417e-02 3.619184e-01 -1.858342e-20 3.762737e-02 3.622451e-01 1.873276e-21 1.028680e-02 -3.266587e-04 -2.045669e-20
1.19964        4.781304e-02 3.675133e-01 -1.791471e-20 3.835532e-02 3.676685e-01 1.919334e-21 9.457716e-03 -1.551521e-04 -1.983404e-20
1.30012        4.786249e-02 3.730306e-01 -1.900712e-20 3.918370e-02 3.730263e-01 1.972211e-21 8.678797e-03 4.298817e-06 -2.097933e-20
1.40046        4.821175e-02 3.793905e-01 -1.904754e-20 4.026834e-02 3.792383e-01 2.009615e-21 7.943406e-03 1.522360e-04 -2.105715e-20
1.49936        4.862966e-02 3.852197e-01 -1.939486e-20 4.136745e-02 3.849311e-01 2.047855e-21 7.262204e-03 2.885606e-04 -2.144272e-20
1.59963        4.917101e-02 3.907084e-01 -2.062191e-20 4.254780e-02 3.902951e-01 2.096626e-21 6.623204e-03 4.132893e-04 -2.271853e-20
1.69998        4.985502e-02 3.959295e-01 -2.422877e-20 4.380263e-02 3.954029e-01 2.146416e-21 6.052388e-03 5.266158e-04 -2.637518e-20
1.80048        5.064038e-02 4.007485e-01 -3.059825e-20 4.507649e-02 4.001221e-01 2.162878e-21 5.563886e-03 6.264019e-04 -3.276113e-20
1.8998         5.151117e-02 4.049604e-01 -3.572474e-20 4.633701e-02 4.042583e-01 2.070557e-21 5.174167e-03 7.021903e-04 -3.779530e-20
1.999367       5.256946e-02 4.088042e-01 -3.398092e-20 4.769103e-02 4.080430e-01 1.780339e-21 4.878431e-03 7.611150e-04 -3.576126e-20
2.100619       5.372470e-02 4.119160e-01 -3.059485e-20 4.902392e-02 4.111278e-01 1.400794e-21 4.700785e-03 7.882160e-04 -3.199564e-20
2.199421       5.483999e-02 4.139738e-01 -2.461695e-20 5.019925e-02 4.132008e-01 1.289564e-21 4.640738e-03 7.729891e-04 -2.590652e-20
2.299968       5.592796e-02 4.150113e-01 -1.639749e-20 5.130393e-02 4.142567e-01 1.533937e-21 4.624024e-03 7.546444e-04 -1.793143e-20
2.399492       5.700420e-02 4.148775e-01 -9.308055e-21 5.228995e-02 4.141483e-01 1.888223e-21 4.714250e-03 7.291481e-04 -1.119628e-20
2.499416       5.795701e-02 4.130583e-01 -1.811973e-21 5.303153e-02 4.124129e-01 2.126939e-21 4.925477e-03 6.453987e-04 -3.938911e-21
2.599781       5.852611e-02 4.085026e-01 1.495060e-21 5.338574e-02 4.079685e-01 2.166213e-21 5.140372e-03 5.340694e-04 -6.711528e-22
2.700629       5.839299e-02 4.000607e-01 -1.315061e-21 5.298135e-02 3.996166e-01 1.858620e-21 5.411637e-03 4.440208e-04 -3.173681e-21
2.800583       5.863464e-02 3.932025e-01 -7.278166e-21 5.285366e-02 3.929037e-01 1.092754e-21 5.780974e-03 2.987960e-04 -8.370919e-21
2.899665       6.007955e-02 3.949232e-01 -1.215368e-20 5.400856e-02 3.947388e-01 3.374005e-22 6.070989e-03 1.844086e-04 -1.249108e-20
3.0007138      6.399203e-02 4.121540e-01 -1.338185e-20 5.783967e-02 4.120174e-01 -7.060931e-23 6.152363e-03 1.365151e-04 -1.331124e-20
3.1007115      6.938903e-02 4.381493e-01 -1.651900e-20 6.321275e-02 4.380479e-01 -2.266442e-22 6.176277e-03 1.014345e-04 -1.629235e-20
3.1994683      7.454130e-02 4.629722e-01 -2.190435e-20 6.844803e-02 4.628389e-01 -2.346711e-22 6.093277e-03 1.333633e-04 -2.166968e-20
3.29974        7.901818e-02 4.830887e-01 -2.929255e-20 7.299467e-02 4.829656e-01 -5.848114e-23 6.023518e-03 1.231033e-04 -2.923407e-20
3.399993       8.334434e-02 5.017174e-01 -3.524362e-20 7.731317e-02 5.015906e-01 5.158162e-22 6.031162e-03 1.268206e-04 -3.575943e-20
3.5001911      8.752215e-02 5.196890e-01 -3.504053e-20 8.158064e-02 5.195446e-01 1.422875e-21 5.941511e-03 1.443547e-04 -3.646340e-20
3.6003189      9.180293e-02 5.373555e-01 -3.258874e-20 8.594260e-02 5.372192e-01 2.318651e-21 5.860326e-03 1.362606e-04 -3.490739e-20
3.7003773      9.641094e-02 5.568837e-01 -3.795014e-20 9.069430e-02 5.567217e-01 2.723193e-21 5.716632e-03 1.620479e-04 -4.067333e-20
3.8003681      1.014476e-01 5.780348e-01 -4.140878e-20 9.595727e-02 5.778334e-01 2.755381e-21 5.490338e-03 2.014099e-04 -4.416416e-20
3.9002945      1.069405e-01 6.020192e-01 -4.076412e-20 1.017481e-01 6.017413e-01 2.939028e-21 5.192419e-03 2.779091e-04 -4.370314e-20
4.00015077     1.127588e-01 6.278588e-01 -3.082971e-20 1.080158e-01 6.274553e-01 3.740550e-21 4.743043e-03 4.034923e-04 -3.457026e-20
4.09992349     1.191917e-01 6.563919e-01 -2.911196e-20 1.149838e-01 6.558274e-01 5.251594e-21 4.207992e-03 5.644957e-04 -3.436355e-20
4.19960054     1.269577e-01 6.910467e-01 -3.831261e-20 1.232603e-01 6.903209e-01 6.847193e-21 3.697438e-03 7.258006e-04 -4.515980e-20
4.30060225     1.353060e-01 7.291089e-01 -4.410833e-20 1.320975e-01 7.282126e-01 7.635957e-21 3.208531e-03 8.962980e-04 -5.174428e-20
4.39999535     1.423772e-01 7.633505e-01 -4.591235e-20 1.396687e-01 7.622873e-01 7.584361e-21 2.708510e-03 1.063254e-03 -5.349671e-20
4.50058982     1.480157e-01 7.916828e-01 -4.631870e-20 1.457934e-01 7.904819e-01 7.083927e-21 2.222221e-03 1.200902e-03 -5.340263e-20
4.59945708     1.534078e-01 8.170303e-01 -4.249531e-20 1.515971e-01 8.157202e-01 6.316184e-21 1.810740e-03 1.310113e-03 -4.881150e-20
4.69946112     1.598830e-01 8.444365e-01 -4.229507e-20 1.583819e-01 8.430284e-01 5.466086e-21 1.501021e-03 1.408135e-03 -4.776115e-20
4.80064084     1.666126e-01 8.693336e-01 -5.213501e-20 1.652517e-01 8.678501e-01 4.711296e-21 1.360878e-03 1.483527e-03 -5.684631e-20
4.90016405     1.714596e-01 8.818440e-01 -6.581183e-20 1.699988e-01 8.803635e-01 4.128875e-21 1.460736e-03 1.480535e-03 -6.994070e-20
4.999493983    1.733203e-01 8.733393e-01 -7.249347e-20 1.714391e-01 8.719573e-01 3.727662e-21 1.881178e-03 1.382017e-03 -7.622113e-20
5.099749091    1.735004e-01 8.427538e-01 -7.374144e-20 1.706880e-01 8.416180e-01 3.563992e-21 2.812328e-03 1.135749e-03 -7.730544e-20
5.200098285    1.739195e-01 7.928516e-01 -6.779457e-20 1.694370e-01 7.921552e-01 3.735826e-21 4.482432e-03 6.964615e-04 -7.153040e-20
5.300255363    1.781522e-01 7.420951e-01 -5.654208e-20 1.709712e-01 7.420090e-01 4.070415e-21 7.180993e-03 8.611799e-05 -6.061250e-20
5.399870302    1.888740e-01 7.200609e-01 -4.796186e-20 1.783070e-01 7.207416e-01 3.899835e-21 1.056699e-02 -6.806588e-04 -5.186170e-20
5.500307049    1.962214e-01 7.001657e-01 -5.031370e-20 1.833329e-01 7.014857e-01 2.855857e-21 1.288853e-02 -1.320016e-03 -5.316956e-20
5.599996375    1.965553e-01 6.612318e-01 -4.556890e-20 1.825922e-01 6.627760e-01 1.706252e-21 1.396307e-02 -1.544223e-03 -4.727516e-20
5.700506483    1.959799e-01 6.197828e-01 -3.787000e-20 1.816142e-01 6.213884e-01 1.656422e-21 1.436571e-02 -1.605618e-03 -3.952643e-20
5.800067367    1.920473e-01 5.689889e-01 -3.809267e-20 1.773563e-01 5.706654e-01 2.022228e-21 1.469097e-02 -1.676558e-03 -4.011490e-20
5.900341206    1.815163e-01 5.013762e-01 -1.044989e-20 1.667898e-01 5.030446e-01 2.071799e-21 1.472648e-02 -1.668384e-03 -1.252169e-20
5.9995954681   1.669938e-01 4.287715e-01 -4.539356e-22 1.523955e-01 4.304622e-01 1.844614e-21 1.459822e-02 -1.690641e-03 -2.298549e-21
6.1000465113   1.500857e-01 3.687196e-01 -1.285531e-20 1.358543e-01 3.703798e-01 1.561546e-21 1.423142e-02 -1.660269e-03 -1.441685e-20
6.200447863    1.339641e-01 3.082038e-01 -4.264981e-20 1.201147e-01 3.097074e-01 1.467489e-21 1.384934e-02 -1.503639e-03 -4.411730e-20
6.3003840692   1.256781e-01 2.706679e-01 -5.160277e-20 1.121127e-01 2.720582e-01 2.197926e-21 1.356539e-02 -1.390338e-03 -5.380070e-20
6.4005186012   1.263226e-01 2.860332e-01 -4.506309e-20 1.136300e-01 2.871938e-01 3.465630e-21 1.269260e-02 -1.160628e-03 -4.852872e-20
6.5007956037   1.140381e-01 2.591339e-01 -3.457712e-20 1.026507e-01 2.600608e-01 6.633828e-21 1.138738e-02 -9.268730e-04 -4.121095e-20
6.6003445121   9.454981e-02 1.750647e-01 -9.422646e-21 8.286060e-02 1.760026e-01 4.664548e-21 1.168921e-02 -9.378434e-04 -1.408719e-20
6.6997740787   8.274911e-02 1.128696e-01 -1.968279e-20 7.012490e-02 1.141495e-01 3.593925e-21 1.262421e-02 -1.279877e-03 -2.327672e-20
6.7993845698   7.074458e-02 4.607766e-02 -4.900501e-20 5.753586e-02 4.760935e-02 2.595658e-21 1.320873e-02 -1.531690e-03 -5.160067e-20
6.9006480828   5.607539e-02 -2.681233e-02 -5.083683e-20 4.219822e-02 -2.508951e-02 1.817746e-21 1.387717e-02 -1.722817e-03 -5.265457e-20
6.99957500405  4.436141e-02 -8.522909e-02 -4.167440e-20 2.986131e-02 -8.329230e-02 1.343069e-21 1.450010e-02 -1.936795e-03 -4.301747e-20
7.09968570952  4.215147e-02 -1.155156e-01 -3.045118e-20 2.701721e-02 -1.133413e-01 1.307862e-21 1.513426e-02 -2.174334e-03 -3.175904e-20
7.20031338532  4.766166e-02 -1.235837e-01 -2.478032e-20 3.179196e-02 -1.211647e-01 1.449323e-21 1.586971e-02 -2.419034e-03 -2.622964e-20
7.29959344383  5.685997e-02 -1.068910e-01 -2.570717e-20 4.036248e-02 -1.042559e-01 1.623119e-21 1.649749e-02 -2.635081e-03 -2.733029e-20
7.40021568841  6.325295e-02 -7.114516e-02 -2.615426e-20 4.667268e-02 -6.845048e-02 1.758087e-21 1.658027e-02 -2.694677e-03 -2.791235e-20
7.50001346438  6.295468e-02 -3.076285e-02 -2.736784e-20 4.717788e-02 -2.825086e-02 2.117159e-21 1.577679e-02 -2.511992e-03 -2.948500e-20
7.60066192159  6.247415e-02 3.052697e-02 -2.087482e-20 4.847944e-02 3.262821e-02 3.057850e-21 1.399471e-02 -2.101234e-03 -2.393267e-20
7.70012920028  7.158341e-02 1.398462e-01 -1.885641e-20 5.997556e-02 1.412255e-01 4.189890e-21 1.160785e-02 -1.379349e-03 -2.304630e-20
7.80043531742  9.223688e-02 2.924240e-01 -2.013049e-20 8.302049e-02 2.930734e-01 4.362962e-21 9.216384e-03 -6.494398e-04 -2.449345e-20
7.89969380936  9.984447e-02 3.534607e-01 -1.969450e-20 9.179568e-02 3.537014e-01 4.201888e-21 8.048788e-03 -2.406146e-04 -2.389639e-20
8.000390930911 9.725868e-02 3.544673e-01 -1.942669e-20 8.956203e-02 3.545472e-01 3.797553e-21 7.696654e-03 -7.985809e-05 -2.322425e-20
8.099372330507 9.171187e-02 3.307125e-01 -2.134299e-20 8.397576e-02 3.307905e-01 3.215522e-21 7.736104e-03 -7.799808e-05 -2.455851e-20
8.199211237961 7.856716e-02 2.456892e-01 -2.245211e-20 6.993731e-02 2.460093e-01 2.738576e-21 8.629845e-03 -3.201385e-04 -2.519069e-20
8.299290418539 6.673770e-02 1.577082e-01 -1.978398e-20 5.647982e-02 1.584764e-01 2.711883e-21 1.025788e-02 -7.681982e-04 -2.249587e-20
8.400393044872 5.806050e-02 1.081753e-01 -2.252664e-20 4.657030e-02 1.092233e-01 2.622862e-21 1.149020e-02 -1.048016e-03 -2.514950e-20
8.49940508368  4.904120e-02 8.065394e-02 -2.783711e-20 3.730084e-02 8.178254e-02 2.223342e-21 1.174036e-02 -1.128603e-03 -3.006046e-20
8.599660035247 4.422663e-02 8.559361e-02 -2.993694e-20 3.309518e-02 8.663154e-02 1.978459e-21 1.113146e-02 -1.037931e-03 -3.191540e-20
8.699647368446 4.717569e-02 1.300233e-01 -3.033030e-20 3.712332e-02 1.308511e-01 2.035752e-21 1.005237e-02 -8.278190e-04 -3.236605e-20
8.799633080606 5.446026e-02 1.941000e-01 -2.637425e-20 4.550127e-02 1.946841e-01 1.973221e-21 8.958992e-03 -5.840439e-04 -2.834747e-20
8.900645425167 6.017282e-02 2.414594e-01 -1.779964e-20 5.212344e-02 2.418215e-01 1.989468e-21 8.049382e-03 -3.621129e-04 -1.978910e-20
9.0007286129388 6.319627e-02 2.685396e-01 -1.318277e-20 5.585128e-02 2.687402e-01 1.894800e-21 7.344990e-03 -2.005720e-04 -1.507757e-20
9.099842817321 6.661469e-02 2.971597e-01 -1.121501e-20 5.990381e-02 2.972149e-01 1.385673e-21 6.710884e-03 -5.517695e-05 -1.260068e-20
9.1996161909232 6.836911e-02 3.158506e-01 -1.253232e-20 6.211183e-02 3.157860e-01 9.818460e-22 6.257281e-03 6.455339e-05 -1.351417e-20
9.3000782319054 6.658047e-02 3.112420e-01 -8.297770e-21 6.039459e-02 3.111294e-01 1.164773e-21 6.185873e-03 1.125569e-04 -9.462542e-21
9.399830799413 6.312369e-02 2.942454e-01 -6.305954e-21 5.669888e-02 2.942075e-01 1.812293e-21 6.424812e-03 3.784570e-05 -8.118248e-21
9.5007495748623 6.565463e-02 3.121186e-01 -6.678814e-21 5.916940e-02 3.121724e-01 2.393417e-21 6.485232e-03 -5.374400e-05 -9.072230e-21
9.5996431307585 7.192568e-02 3.509749e-01 -1.072049e-20 6.571981e-02 3.509766e-01 2.607668e-21 6.205872e-03 -1.695004e-06 -1.332816e-20
9.6995547700276 7.804944e-02 3.875369e-01 -1.287505e-20 7.227861e-02 3.874346e-01 2.979738e-21 5.770828e-03 1.022872e-04 -1.585478e-20
9.800369949118 8.404260e-02 4.217838e-01 -1.228365e-20 7.885135e-02 4.215252e-01 3.875561e-21 5.191256e-03 2.586300e-04 -1.615921e-20
9.9004819520364 9.024270e-02 4.562307e-01 -1.561849e-20 8.570083e-02 4.557955e-01 4.565798e-21 4.541870e-03 4.352034e-04 -2.018429e-20
9.99989731262127 9.677789e-02 4.920823e-01 -1.490978e-20 9.295745e-02 4.914428e-01 3.517842e-21 3.820438e-03 6.395534e-04 -1.842762e-20
10.1001709315705 1.019166e-01 5.185014e-01 -1.672670e-20 9.863913e-02 5.177181e-01 1.988611e-21 3.277482e-03 7.832708e-04 -1.871531e-20
10.1998305890023 1.030956e-01 5.175783e-01 -1.862058e-20 9.979186e-02 5.167711e-01 1.294236e-21 3.303709e-03 8.071720e-04 -1.991482e-20
10.3006805790398 9.726196e-02 4.656821e-01 -1.151179e-20 9.300917e-02 4.650724e-01 1.693315e-21 4.252790e-03 6.096670e-04 -1.320510e-20
10.4002804061744 8.685679e-02 3.708724e-01 -7.517844e-21 8.054030e-02 3.707634e-01 2.247753e-21 6.316484e-03 1.089686e-04 -9.765597e-21
10.4994216278322 8.748913e-02 3.329151e-01 -7.345540e-21 7.909449e-02 3.334088e-01 2.264766e-21 8.394640e-03 -4.936690e-04 -9.610306e-21
10.5999937171271 9.300988e-02 3.528632e-01 -1.091551e-20 8.389405e-02 3.535223e-01 2.529690e-21 9.115828e-03 -6.590665e-04 -1.344520e-20
10.7001846234422 9.575061e-02 3.858789e-01 -1.058698e-20 8.719739e-02 3.864513e-01 3.503526e-21 8.553217e-03 -5.723752e-04 -1.409050e-20
10.7994128082487 1.086267e-01 4.785750e-01 -9.498505e-21 1.017839e-01 4.787613e-01 4.526206e-21 6.842808e-03 -1.863352e-04 -1.402471e-20
10.8999827647391 1.187927e-01 5.435054e-01 -8.547948e-21 1.133587e-01 5.432604e-01 5.450562e-21 5.434054e-03 2.450113e-04 -1.399851e-20
10.999750060686463 1.249112e-01 5.828987e-01 -1.091938e-20 1.202243e-01 5.824253e-01 6.109328e-21 4.686900e-03 4.734121e-04 -1.702871e-20
11.100112484311135 1.328532e-01 6.304251e-01 -1.954871e-20 1.286972e-01 6.297807e-01 6.432400e-21 4.155980e-03 6.443948e-04 -2.598111e-20
11.199368945415626 1.412910e-01 6.782773e-01 -2.376950e-20 1.375040e-01 6.775169e-01 6.635087e-21 3.786944e-03 7.603635e-04 -3.040459e-20
11.300537617932591 1.474140e-01 7.184916e-01 -2.547526e-20 1.438869e-01 7.176500e-01 6.774770e-21 3.527148e-03 8.416461e-04 -3.225003e-20
11.400501695688851 1.446600e-01 7.230685e-01 -2.359003e-20 1.412689e-01 7.221795e-01 6.714590e-21 3.391072e-03 8.890392e-04 -3.030462e-20
11.499318652148856 1.318936e-01 6.795371e-01 -2.306141e-20 1.285417e-01 6.786403e-01 5.671314e-21 3.351932e-03 8.967733e-04 -2.873273e-20
11.600170172582095 1.185898e-01 6.196686e-01 -1.679798e-20 1.152913e-01 6.187785e-01 3.563674e-21 3.298535e-03 8.901026e-04 -2.036166e-20
11.700584696271813 1.084004e-01 5.468764e-01 -1.473476e-20 1.048050e-01 5.460838e-01 1.464575e-21 3.595459e-03 7.925253e-04 -1.619934e-20
11.799982340228224 9.717442e-02 4.374534e-01 -1.575425e-20 9.216703e-02 4.370451e-01 7.582350e-22 5.007382e-03 4.083489e-04 -1.651248e-20
11.899464450705413 9.251540e-02 3.332193e-01 -5.339325e-21 8.456666e-02 3.335517e-01 1.200285e-21 7.948745e-03 -3.324109e-04 -6.539610e-21
11.999830590719549 1.105404e-01 3.682394e-01 -6.108616e-21 9.993278e-02 3.692458e-01 1.474069e-21 1.060764e-02 -1.006449e-03 -7.582685e-21
12.100689617660375 1.225363e-01 4.404436e-01 -4.955228e-21 1.113343e-01 4.415261e-01 1.731056e-21 1.120192e-02 -1.082505e-03 -6.686284e-21
12.199310371468982 1.222043e-01 4.889052e-01 3.259330e-21 1.119108e-01 4.897727e-01 2.195953e-21 1.029349e-02 -8.675569e-04 1.063377e-21
12.299278536217621 1.259288e-01 5.562930e-01 2.133566e-21 1.173644e-01 5.567505e-01 2.958526e-21 8.564317e-03 -4.575418e-04 -8.249605e-22
12.399627586375734 1.273953e-01 5.969933e-01 -1.278859e-20 1.203241e-01 5.970150e-01 3.720183e-21 7.071190e-03 -2.166155e-05 -1.650878e-20
12.499960301474811 1.280442e-01 6.250201e-01 -2.137817e-20 1.219628e-01 6.247419e-01 4.387287e-21 6.081382e-03 2.781571e-04 -2.576545e-20
12.600223105935305 1.254774e-01 6.335627e-01 -1.694566e-20 1.199537e-01 6.331315e-01 4.956875e-21 5.523679e-03 4.311819e-04 -2.190253e-20
12.700470020439424 1.179454e-01 6.176795e-01 -1.265385e-20 1.128092e-01 6.171729e-01 5.429909e-21 5.136179e-03 5.066446e-04 -1.808375e-20
12.799366174058591 1.082473e-01 5.833977e-01 -8.018183e-21 1.034822e-01 5.828080e-01 5.730428e-21 4.765088e-03 5.896954e-04 -1.374861e-20
12.900267204926971 1.031895e-01 5.515054e-01 -8.980172e-21 9.888228e-02 5.508002e-01 4.143885e-21 4.307188e-03 7.051936e-04 -1.312406e-20
12.999549359897713 9.885968e-02 5.001560e-01 -1.539270e-20 9.456659e-02 4.994141e-01 2.107770e-21 4.293095e-03 7.419098e-04 -1.750047e-20
13.099661478082352 9.120152e-02 4.057836e-01 -2.360082e-20 8.569179e-02 4.053701e-01 1.381216e-21 5.509729e-03 4.134553e-04 -2.498204e-20
13.200178189623113 8.906238e-02 3.211102e-01 -2.117435e-20 8.082957e-02 3.214289e-01 1.649041e-21 8.232811e-03 -3.187176e-04 -2.282339e-20
13.300122360576349 1.069239e-01 3.681197e-01 -2.342369e-20 9.622595e-02 3.689582e-01 2.133684e-21 1.069790e-02 -8.384977e-04 -2.555738e-20
13.400133630028892 1.191647e-01 4.440933e-01 -2.238573e-20 1.080295e-01 4.450369e-01 2.339789e-21 1.113523e-02 -9.435850e-04 -2.472552e-20
13.499412394644841 1.192673e-01 4.900529e-01 -2.264061e-20 1.088812e-01 4.908411e-01 2.222010e-21 1.038611e-02 -7.882113e-04 -2.486262e-20
13.599833280836329 1.185571e-01 5.311964e-01 -1.887033e-20 1.092793e-01 5.316918e-01 2.899285e-21 9.277783e-03 -4.953680e-04 -2.176961e-20
13.700635025642255 1.190213e-01 5.695070e-01 -2.440020e-20 1.108880e-01 5.697440e-01 3.510275e-21 8.133328e-03 -2.369735e-04 -2.791047e-20
13.799876819145975 1.159549e-01 5.847759e-01 -3.735963e-20 1.087211e-01 5.847963e-01 4.006148e-21 7.233803e-03 -2.038213e-05 -4.136578e-20
13.900446043783768 1.076123e-01 5.705470e-01 -5.037499e-20 1.010211e-01 5.703799e-01 4.045474e-21 6.591123e-03 1.671307e-04 -5.442047e-20
13.999409034046591 9.889475e-02 5.443936e-01 -5.295443e-20 9.296374e-02 5.440799e-01 4.074619e-21 5.931009e-03 3.137010e-04 -5.702905e-20
14.100149176430321 9.699668e-02 5.311600e-01 -4.620456e-20 9.185482e-02 5.306662e-01 4.705996e-21 5.141867e-03 4.938392e-04 -5.091055e-20
14.200487947826192 1.010134e-01 5.280756e-01 -3.978701e-20 9.649624e-02 5.273812e-01 4.204432e-21 4.517146e-03 6.944496e-04 -4.399144e-20
14.299800069581607 1.010159e-01 4.902311e-01 -4.327261e-20 9.640706e-02 4.895409e-01 2.365227e-21 4.608857e-03 6.901684e-04 -4.563784e-20
14.400391316955934 9.465387e-02 3.976078e-01 -4.719780e-20 8.848292e-02 3.973303e-01 1.734070e-21 6.170946e-03 2.774845e-04 -4.893187e-20
14.500134734420099 9.871478e-02 3.449858e-01 -4.202603e-20 8.960909e-02 3.454204e-01 1.916145e-21 9.105691e-03 -4.346860e-04 -4.394217e-20
14.600342911532016 1.177606e-01 4.121631e-01 -4.122921e-20 1.066633e-01 4.130865e-01 2.035617e-21 1.109736e-02 -9.234074e-04 -4.326483e-20
14.70069443741995 1.238005e-01 4.700857e-01 -3.654534e-20 1.127452e-01 4.710281e-01 2.404498e-21 1.105523e-02 -9.424074e-04 -3.894983e-20
14.800094522302393 1.219440e-01 5.115684e-01 -3.808395e-20 1.119726e-01 5.122625e-01 2.651213e-21 9.971394e-03 -6.940863e-04 -4.073516e-20
14.900462080653698 1.202569e-01 5.483547e-01 -3.933741e-20 1.115260e-01 5.487177e-01 3.071149e-21 8.730852e-03 -3.630196e-04 -4.240856e-20
14.999504634612776 1.158952e-01 5.623323e-01 -4.110383e-20 1.080023e-01 5.624644e-01 3.452436e-21 7.892921e-03 -1.321318e-04 -4.455627e-20
15.099967172843572 1.090935e-01 5.577843e-01 -5.286369e-20 1.017903e-01 5.577944e-01 3.564555e-21 7.303144e-03 -1.008751e-05 -5.642824e-20
15.200227353417899 1.014449e-01 5.407928e-01 -6.514273e-20 9.471846e-02 5.406762e-01 3.702333e-21 6.726410e-03 1.166455e-04 -6.884507e-20
15.300517778805098 9.832138e-02 5.309799e-01 -6.672362e-20 9.244956e-02 5.306784e-01 4.354645e-21 5.871818e-03 3.015096e-04 -7.107827e-20
15.400011078082503 1.008748e-01 5.306294e-01 -6.046605e-20 9.585160e-02 5.301066e-01 4.741658e-21 5.023238e-03 5.228347e-04 -6.520771e-20
15.49953500647444 1.050979e-01 5.217946e-01 -5.608556e-20 1.005041e-01 5.211028e-01 3.754712e-21 4.593750e-03 6.917752e-04 -5.984027e-20
15.599874886488116 1.025195e-01 4.614894e-01 -6.096201e-20 9.729215e-02 4.609657e-01 2.237933e-21 5.227320e-03 5.236910e-04 -6.319994e-20
15.700405285086617 9.798460e-02 3.650903e-01 -6.362084e-20 9.045064e-02 3.651489e-01 2.051205e-21 7.533960e-03 -5.860456e-05 -6.567205e-20
15.800269508381309 1.127015e-01 3.736279e-01 -5.917684e-20 1.020879e-01 3.744102e-01 1.936392e-21 1.061368e-02 -7.823808e-04 -6.111323e-20
15.900278102272235 1.274167e-01 4.404653e-01 -5.782296e-20 1.155098e-01 4.415951e-01 1.893946e-21 1.190697e-02 -1.129764e-03 -5.971690e-20
16.000160857414464 1.257873e-01 4.727720e-01 -5.506296e-20 1.143670e-01 4.738194e-01 2.321681e-21 1.142027e-02 -1.047415e-03 -5.738464e-20
16.1003621459322588 1.230210e-01 5.149894e-01 -5.780323e-20 1.129445e-01 5.157223e-01 2.724565e-21 1.007655e-02 -7.328489e-04 -6.052780e-20
16.1996962315175175 1.203991e-01 5.471498e-01 -5.639789e-20 1.116492e-01 5.475153e-01 3.161922e-21 8.749835e-03 -3.655454e-04 -5.955981e-20
16.3006112288153844 1.144559e-01 5.538030e-01 -6.325620e-20 1.065274e-01 5.539408e-01 3.588811e-21 7.928415e-03 -1.377296e-04 -6.684501e-20
16.3997580605996589 1.073849e-01 5.457999e-01 -7.728057e-20 1.000579e-01 5.458180e-01 3.708575e-21 7.326965e-03 -1.816124e-05 -8.098915e-20
16.5002150876520126 1.012387e-01 5.337426e-01 -8.107308e-20 9.463440e-02 5.335882e-01 4.121139e-21 6.604295e-03 1.544463e-04 -8.519422e-20
16.5993076870976779 9.981665e-02 5.283714e-01 -7.163540e-20 9.412864e-02 5.280216e-01 4.775047e-21 5.688014e-03 3.498401e-04 -7.641044e-20
16.7007069828766177 1.021893e-01 5.222743e-01 -6.265043e-20 9.723436e-02 5.217126e-01 4.569403e-21 4.954912e-03 5.617215e-04 -6.721983e-20
16.7993853186030293 1.028627e-01 4.901961e-01 -6.090339e-20 9.797662e-02 4.895772e-01 3.021372e-21 4.886049e-03 6.189737e-04 -6.392476e-20
16.900645456902005 9.719104e-02 4.021563e-01 -6.585276e-20 9.102162e-02 4.018766e-01 2.071844e-21 6.169420e-03 2.797271e-04 -6.792460e-20
16.9994284009936933 9.841722e-02 3.315311e-01 -6.008160e-20 8.949246e-02 3.319150e-01 2.248280e-21 8.924765e-03 -3.839254e-04 -6.232988e-20
17.1006381608337605 1.168963e-01 3.775395e-01 -5.926989e-20 1.054654e-01 3.785203e-01 2.119430e-21 1.143093e-02 -9.807428e-04 -6.138932e-20
17.1995221371472944 1.249441e-01 4.308960e-01 -5.655963e-20 1.130344e-01 4.320362e-01 2.176931e-21 1.190973e-02 -1.140203e-03 -5.873656e-20
17.2995424879419026 1.222860e-01 4.669494e-01 -5.700561e-20 1.112344e-01 4.679195e-01 2.613351e-21 1.105162e-02 -9.700762e-04 -5.961896e-20
17.4002972718066076 1.231020e-01 5.248547e-01 -6.010069e-20 1.135888e-01 5.254602e-01 3.015352e-21 9.513153e-03 -6.055030e-04 -6.311604e-20
17.4998335238596034 1.208995e-01 5.548070e-01 -5.915526e-20 1.126467e-01 5.550455e-01 3.542208e-21 8.252821e-03 -2.384886e-04 -6.269746e-20
17.6007574946171985 1.146735e-01 5.581653e-01 -7.119894e-20 1.071627e-01 5.582054e-01 3.848075e-21 7.510742e-03 -4.007400e-05 -7.504702e-20
17.6998357820602763 1.069014e-01 5.465000e-01 -8.409640e-20 9.991795e-02 5.463976e-01 3.893191e-21 6.983469e-03 1.023630e-04 -8.798959e-20
17.8002156409005927 9.960394e-02 5.280081e-01 -8.482765e-20 9.330442e-02 5.277776e-01 4.315219e-21 6.299519e-03 2.304884e-04 -8.914287e-20
17.8992768580195047 9.747757e-02 5.167573e-01 -7.392219e-20 9.197402e-02 5.163419e-01 4.827484e-21 5.503545e-03 4.154412e-04 -7.874967e-20
18.000733647238949 9.868395e-02 5.008812e-01 -6.358866e-20 9.374942e-02 5.002947e-01 4.024150e-21 4.934530e-03 5.865340e-04 -6.761281e-20
18.0996165740682677 9.633240e-02 4.489790e-01 -6.709423e-20 9.114869e-02 4.484391e-01 2.338545e-21 5.183717e-03 5.398536e-04 -6.943278e-20
18.1998403693670632 8.905502e-02 3.483498e-01 -6.833008e-20 8.224777e-02 3.482528e-01 1.886397e-21 6.807253e-03 9.699097e-05 -7.021647e-20
18.2993175994261463 9.405226e-02 3.038164e-01 -5.950315e-20 8.453826e-02 3.043428e-01 2.193254e-21 9.514001e-03 -5.264001e-04 -6.169640e-20
18.3998081671020088 1.110464e-01 3.624900e-01 -5.713989e-20 9.980456e-02 3.634365e-01 2.204659e-21 1.124184e-02 -9.465390e-04 -5.934455e-20
18.4997158232751389 1.178679e-01 4.214248e-01 -5.402094e-20 1.066502e-01 4.224026e-01 2.474427e-21 1.121773e-02 -9.777357e-04 -5.649536e-20
