# Moment      
# CofR        : (0.000000e+00 0.000000e+00 0.000000e+00)
#
# Time        	total_x total_y total_z	pressure_x pressure_y pressure_z	viscous_x viscous_y viscous_z
0.100186       1.189957e-01 -2.949256e-02 3.718491e-02 1.212874e-01 -1.337093e-02 4.006200e-02 -2.291729e-03 -1.612163e-02 -2.877090e-03
0.200156       1.310918e-01 -2.729831e-02 4.982265e-02 1.328605e-01 -1.420286e-02 5.218318e-02 -1.768676e-03 -1.309546e-02 -2.360530e-03
0.299928       1.417722e-01 -2.646370e-02 6.025447e-02 1.431956e-01 -1.522929e-02 6.225871e-02 -1.423473e-03 -1.123441e-02 -2.004246e-03
0.400692       1.494537e-01 -2.578184e-02 6.639631e-02 1.506129e-01 -1.588837e-02 6.811199e-02 -1.159188e-03 -9.893472e-03 -1.715681e-03
0.499493       1.556812e-01 -2.528592e-02 7.082157e-02 1.566301e-01 -1.641794e-02 7.229771e-02 -9.488817e-04 -8.867984e-03 -1.476148e-03
0.60043        1.613108e-01 -2.490715e-02 7.458556e-02 1.620804e-01 -1.689778e-02 7.585015e-02 -7.695914e-04 -8.009372e-03 -1.264586e-03
0.700655       1.662394e-01 -2.461975e-02 7.768742e-02 1.668563e-01 -1.733361e-02 7.876730e-02 -6.168853e-04 -7.286132e-03 -1.079877e-03
0.800259       1.705773e-01 -2.438285e-02 8.026030e-02 1.710610e-01 -1.772366e-02 8.117557e-02 -4.837468e-04 -6.659194e-03 -9.152698e-04
0.899324       1.745085e-01 -2.422386e-02 8.248285e-02 1.748744e-01 -1.811880e-02 8.324912e-02 -3.659138e-04 -6.105063e-03 -7.662690e-04
0.999325       1.779231e-01 -2.407476e-02 8.420710e-02 1.781830e-01 -1.847185e-02 8.483590e-02 -2.598227e-04 -5.602907e-03 -6.287991e-04
1.10033        1.809592e-01 -2.395709e-02 8.555244e-02 1.811225e-01 -1.881369e-02 8.605351e-02 -1.633293e-04 -5.143398e-03 -5.010636e-04
1.19964        1.837567e-01 -2.390652e-02 8.680391e-02 1.838342e-01 -1.917766e-02 8.718912e-02 -7.757603e-05 -4.728858e-03 -3.852148e-04
1.30012        1.865153e-01 -2.393125e-02 8.819026e-02 1.865131e-01 -1.959185e-02 8.846616e-02 2.149408e-06 -4.339398e-03 -2.759032e-04
1.40046        1.896952e-01 -2.410587e-02 9.017106e-02 1.896191e-01 -2.013417e-02 9.034239e-02 7.611802e-05 -3.971703e-03 -1.713236e-04
1.49936        1.926098e-01 -2.431483e-02 9.197993e-02 1.924656e-01 -2.068373e-02 9.205216e-02 1.442803e-04 -3.631102e-03 -7.222907e-05
1.59963        1.953542e-01 -2.458550e-02 9.364666e-02 1.951476e-01 -2.127390e-02 9.362536e-02 2.066446e-04 -3.311602e-03 2.130441e-05
1.69998        1.979647e-01 -2.492751e-02 9.524247e-02 1.977014e-01 -2.190132e-02 9.513568e-02 2.633079e-04 -3.026194e-03 1.067853e-04
1.80048        2.003742e-01 -2.532019e-02 9.663403e-02 2.000610e-01 -2.253825e-02 9.645070e-02 3.132009e-04 -2.781943e-03 1.833294e-04
1.8998         2.024802e-01 -2.575559e-02 9.774245e-02 2.021291e-01 -2.316850e-02 9.749745e-02 3.510952e-04 -2.587084e-03 2.449969e-04
1.999367       2.044021e-01 -2.628473e-02 9.875791e-02 2.040215e-01 -2.384551e-02 9.846288e-02 3.805575e-04 -2.439216e-03 2.950235e-04
2.100619       2.059580e-01 -2.686235e-02 9.946858e-02 2.055639e-01 -2.451196e-02 9.914401e-02 3.941080e-04 -2.350393e-03 3.245677e-04
2.199421       2.069869e-01 -2.741999e-02 9.971887e-02 2.066004e-01 -2.509963e-02 9.938857e-02 3.864945e-04 -2.320369e-03 3.302973e-04
2.299968       2.075056e-01 -2.796398e-02 9.953590e-02 2.071283e-01 -2.565197e-02 9.920350e-02 3.773222e-04 -2.312012e-03 3.323954e-04
2.399492       2.074387e-01 -2.850210e-02 9.871239e-02 2.070742e-01 -2.614498e-02 9.839129e-02 3.645740e-04 -2.357125e-03 3.211037e-04
2.499416       2.065291e-01 -2.897851e-02 9.670254e-02 2.062064e-01 -2.651577e-02 9.642408e-02 3.226993e-04 -2.462739e-03 2.784607e-04
2.599781       2.042513e-01 -2.926305e-02 9.301695e-02 2.039843e-01 -2.669287e-02 9.279393e-02 2.670347e-04 -2.570186e-03 2.230215e-04
2.700629       2.000303e-01 -2.919650e-02 8.688272e-02 1.998083e-01 -2.649068e-02 8.671190e-02 2.220104e-04 -2.705819e-03 1.708166e-04
2.800583       1.966013e-01 -2.931732e-02 8.155542e-02 1.964519e-01 -2.642683e-02 8.147012e-02 1.493980e-04 -2.890487e-03 8.529952e-05
2.899665       1.974616e-01 -3.003977e-02 8.228008e-02 1.973694e-01 -2.700428e-02 8.226649e-02 9.220432e-05 -3.035494e-03 1.358993e-05
3.0007138      2.060770e-01 -3.199601e-02 9.381860e-02 2.060087e-01 -2.891983e-02 9.383582e-02 6.825757e-05 -3.076181e-03 -1.721953e-05
3.1007115      2.190747e-01 -3.469451e-02 1.113469e-01 2.190239e-01 -3.160638e-02 1.113888e-01 5.071726e-05 -3.088138e-03 -4.189601e-05
3.1994683      2.314861e-01 -3.727065e-02 1.279183e-01 2.314194e-01 -3.422401e-02 1.279474e-01 6.668163e-05 -3.046638e-03 -2.902312e-05
3.29974        2.415444e-01 -3.950909e-02 1.414820e-01 2.414828e-01 -3.649733e-02 1.415213e-01 6.155164e-05 -3.011759e-03 -3.927462e-05
3.399993       2.508587e-01 -4.167217e-02 1.539206e-01 2.507953e-01 -3.865659e-02 1.539641e-01 6.341030e-05 -3.015581e-03 -4.355507e-05
3.5001911      2.598445e-01 -4.376107e-02 1.664714e-01 2.597723e-01 -4.079032e-02 1.665096e-01 7.217736e-05 -2.970755e-03 -3.820865e-05
3.6003189      2.686777e-01 -4.590146e-02 1.793054e-01 2.686096e-01 -4.297130e-02 1.793522e-01 6.813028e-05 -2.930163e-03 -4.676395e-05
3.7003773      2.784418e-01 -4.820547e-02 1.934997e-01 2.783608e-01 -4.534715e-02 1.935352e-01 8.102395e-05 -2.858316e-03 -3.552997e-05
3.8003681      2.890174e-01 -5.072380e-02 2.093166e-01 2.889167e-01 -4.797863e-02 2.093310e-01 1.007049e-04 -2.745169e-03 -1.447490e-05
3.9002945      3.010096e-01 -5.347026e-02 2.271197e-01 3.008706e-01 -5.087405e-02 2.270907e-01 1.389546e-04 -2.596210e-03 2.904297e-05
4.00015077     3.139294e-01 -5.637941e-02 2.467590e-01 3.137276e-01 -5.400789e-02 2.466526e-01 2.017461e-04 -2.371521e-03 1.063806e-04
4.09992349     3.281959e-01 -5.959587e-02 2.686981e-01 3.279137e-01 -5.749188e-02 2.684855e-01 2.822478e-04 -2.103996e-03 2.126828e-04
4.19960054     3.455234e-01 -6.347887e-02 2.945959e-01 3.451605e-01 -6.163015e-02 2.942772e-01 3.629003e-04 -1.848719e-03 3.186466e-04
4.30060225     3.645544e-01 -6.765302e-02 3.226016e-01 3.641063e-01 -6.604876e-02 3.221701e-01 4.481490e-04 -1.604266e-03 4.315431e-04
4.39999535     3.816753e-01 -7.118861e-02 3.477382e-01 3.811436e-01 -6.983436e-02 3.471989e-01 5.316269e-04 -1.354255e-03 5.393656e-04
4.50058982     3.958414e-01 -7.400783e-02 3.691725e-01 3.952409e-01 -7.289672e-02 3.685495e-01 6.004511e-04 -1.111110e-03 6.229654e-04
4.59945708     4.085151e-01 -7.670391e-02 3.891835e-01 4.078601e-01 -7.579854e-02 3.884975e-01 6.550567e-04 -9.053699e-04 6.860630e-04
4.69946112     4.222183e-01 -7.994148e-02 4.111055e-01 4.215142e-01 -7.919097e-02 4.103597e-01 7.040676e-04 -7.505103e-04 7.458588e-04
4.80064084     4.346668e-01 -8.330631e-02 4.316575e-01 4.339250e-01 -8.262587e-02 4.308558e-01 7.417635e-04 -6.804392e-04 8.016972e-04
4.90016405     4.409220e-01 -8.572979e-02 4.436784e-01 4.401817e-01 -8.499942e-02 4.428728e-01 7.402673e-04 -7.303679e-04 8.055525e-04
4.999493983    4.366697e-01 -8.666016e-02 4.419490e-01 4.359787e-01 -8.571957e-02 4.412034e-01 6.910083e-04 -9.405892e-04 7.455898e-04
5.099749091    4.213769e-01 -8.675019e-02 4.272613e-01 4.208090e-01 -8.534402e-02 4.266664e-01 5.678745e-04 -1.406164e-03 5.949567e-04
5.200098285    3.964258e-01 -8.695974e-02 4.020243e-01 3.960776e-01 -8.471852e-02 4.016890e-01 3.482307e-04 -2.241216e-03 3.353649e-04
5.300255363    3.710476e-01 -8.907609e-02 3.787613e-01 3.710045e-01 -8.548560e-02 3.787642e-01 4.305899e-05 -3.590496e-03 -2.855861e-06
5.399870302    3.600305e-01 -9.443698e-02 3.782113e-01 3.603708e-01 -8.915349e-02 3.786436e-01 -3.403294e-04 -5.283493e-03 -4.323138e-04
5.500307049    3.500828e-01 -9.811071e-02 3.803627e-01 3.507429e-01 -9.166645e-02 3.811947e-01 -6.600079e-04 -6.444264e-03 -8.319143e-04
5.599996375    3.306159e-01 -9.827766e-02 3.692411e-01 3.313880e-01 -9.129612e-02 3.701678e-01 -7.721116e-04 -6.981537e-03 -9.267052e-04
5.700506483    3.098914e-01 -9.798994e-02 3.555001e-01 3.106942e-01 -9.080708e-02 3.564071e-01 -8.028088e-04 -7.182853e-03 -9.069937e-04
5.800067367    2.844944e-01 -9.602364e-02 3.321890e-01 2.853327e-01 -8.867815e-02 3.330826e-01 -8.382788e-04 -7.345484e-03 -8.935793e-04
5.900341206    2.506881e-01 -9.075816e-02 2.932037e-01 2.515223e-01 -8.339492e-02 2.940302e-01 -8.341918e-04 -7.363241e-03 -8.265174e-04
5.9995954681   2.143858e-01 -8.349688e-02 2.430225e-01 2.152311e-01 -7.619777e-02 2.438140e-01 -8.453205e-04 -7.299110e-03 -7.915804e-04
6.1000465113   1.843598e-01 -7.504286e-02 1.927817e-01 1.851899e-01 -6.792716e-02 1.935149e-01 -8.301344e-04 -7.115709e-03 -7.332207e-04
6.200447863    1.541019e-01 -6.698203e-02 1.522812e-01 1.548537e-01 -6.005736e-02 1.528836e-01 -7.518193e-04 -6.924669e-03 -6.023597e-04
6.3003840692   1.353339e-01 -6.283904e-02 1.388192e-01 1.360291e-01 -5.605634e-02 1.393236e-01 -6.951692e-04 -6.782695e-03 -5.043145e-04
6.4005186012   1.430166e-01 -6.316132e-02 1.582243e-01 1.435969e-01 -5.681501e-02 1.585604e-01 -5.803141e-04 -6.346301e-03 -3.361175e-04
6.5007956037   1.295670e-01 -5.701905e-02 1.374602e-01 1.300304e-01 -5.132536e-02 1.376505e-01 -4.634365e-04 -5.693689e-03 -1.902175e-04
6.6003445121   8.753237e-02 -4.727490e-02 7.266383e-02 8.800129e-02 -4.143030e-02 7.283073e-02 -4.689217e-04 -5.844603e-03 -1.669016e-04
6.6997740787   5.643482e-02 -4.137456e-02 2.881416e-02 5.707476e-02 -3.506245e-02 2.921397e-02 -6.399387e-04 -6.312105e-03 -3.998106e-04
6.7993845698   2.303883e-02 -3.537229e-02 -1.025812e-02 2.380468e-02 -2.876793e-02 -9.699739e-03 -7.658451e-04 -6.604363e-03 -5.583789e-04
6.9006480828   -1.340617e-02 -2.803770e-02 -5.137598e-02 -1.254476e-02 -2.109911e-02 -5.071876e-02 -8.614084e-04 -6.938583e-03 -6.572161e-04
6.99957500405  -4.261455e-02 -2.218071e-02 -8.560372e-02 -4.164615e-02 -1.493066e-02 -8.482314e-02 -9.683974e-04 -7.250049e-03 -7.805776e-04
7.09968570952  -5.775782e-02 -2.107574e-02 -9.727270e-02 -5.667066e-02 -1.350861e-02 -9.635055e-02 -1.087167e-03 -7.567131e-03 -9.221481e-04
7.20031338532  -6.179185e-02 -2.383083e-02 -8.947921e-02 -6.058234e-02 -1.589598e-02 -8.843089e-02 -1.209517e-03 -7.934853e-03 -1.048320e-03
7.29959344383  -5.344551e-02 -2.842998e-02 -6.821017e-02 -5.212797e-02 -2.018124e-02 -6.705815e-02 -1.317541e-03 -8.248743e-03 -1.152024e-03
7.40021568841  -3.557258e-02 -3.162648e-02 -4.584148e-02 -3.422524e-02 -2.333634e-02 -4.466474e-02 -1.347339e-03 -8.290135e-03 -1.176744e-03
7.50001346438  -1.538143e-02 -3.147734e-02 -3.188472e-02 -1.412543e-02 -2.358894e-02 -3.080559e-02 -1.255996e-03 -7.888397e-03 -1.079126e-03
7.60066192159  1.526349e-02 -3.123707e-02 -8.532315e-03 1.631410e-02 -2.423972e-02 -7.661004e-03 -1.050617e-03 -6.997356e-03 -8.713114e-04
7.70012920028  6.992308e-02 -3.579171e-02 5.130276e-02 7.061275e-02 -2.998778e-02 5.177001e-02 -6.896744e-04 -5.803926e-03 -4.672547e-04
7.80043531742  1.462120e-01 -4.611844e-02 1.490374e-01 1.465367e-01 -4.151025e-02 1.491086e-01 -3.247199e-04 -4.608192e-03 -7.111759e-05
7.89969380936  1.767304e-01 -4.992223e-02 1.852862e-01 1.768507e-01 -4.589784e-02 1.851615e-01 -1.203073e-04 -4.024394e-03 1.246787e-04
8.000390930911 1.772336e-01 -4.862934e-02 1.810209e-01 1.772736e-01 -4.478101e-02 1.808422e-01 -3.992905e-05 -3.848327e-03 1.786863e-04
8.099372330507 1.653563e-01 -4.585593e-02 1.607128e-01 1.653953e-01 -4.198788e-02 1.605656e-01 -3.899904e-05 -3.868052e-03 1.472039e-04
8.199211237961 1.228446e-01 -3.928358e-02 9.885100e-02 1.230047e-01 -3.496866e-02 9.886916e-02 -1.600692e-04 -4.314923e-03 -1.815861e-05
8.299290418539 7.885410e-02 -3.336885e-02 3.631574e-02 7.923819e-02 -2.823991e-02 3.661217e-02 -3.840991e-04 -5.128941e-03 -2.964274e-04
8.400393044872 5.408766e-02 -2.903025e-02 -1.533585e-03 5.461166e-02 -2.328515e-02 -1.095463e-03 -5.240082e-04 -5.745098e-03 -4.381215e-04
8.49940508368  4.032697e-02 -2.452060e-02 -2.657124e-02 4.089127e-02 -1.865042e-02 -2.609095e-02 -5.643017e-04 -5.870182e-03 -4.802879e-04
8.599660035247 4.279680e-02 -2.211332e-02 -2.878276e-02 4.331577e-02 -1.654759e-02 -2.834765e-02 -5.189653e-04 -5.565728e-03 -4.351114e-04
8.699647368446 6.501164e-02 -2.358784e-02 -2.419494e-03 6.542555e-02 -1.856166e-02 -2.093325e-03 -4.139095e-04 -5.026185e-03 -3.261697e-04
8.799633080606 9.705001e-02 -2.723013e-02 3.703093e-02 9.734204e-02 -2.275063e-02 3.723134e-02 -2.920220e-04 -4.479496e-03 -2.004180e-04
8.900645425167 1.207297e-01 -3.008641e-02 6.416392e-02 1.209107e-01 -2.606172e-02 6.424952e-02 -1.810564e-04 -4.024691e-03 -8.560488e-05
9.0007286129388 1.342698e-01 -3.159814e-02 7.727097e-02 1.343701e-01 -2.792564e-02 7.727816e-02 -1.002860e-04 -3.672495e-03 -7.192851e-06
9.099842817321 1.485799e-01 -3.330735e-02 9.272860e-02 1.486075e-01 -2.995190e-02 9.266400e-02 -2.758847e-05 -3.355442e-03 6.459214e-05
9.1996161909232 1.579253e-01 -3.418456e-02 1.017495e-01 1.578930e-01 -3.105592e-02 1.016228e-01 3.227669e-05 -3.128640e-03 1.267364e-04
9.3000782319054 1.556210e-01 -3.329023e-02 9.448767e-02 1.555647e-01 -3.019730e-02 9.433427e-02 5.627847e-05 -3.092937e-03 1.534052e-04
9.399830799413 1.471227e-01 -3.156184e-02 7.886203e-02 1.471038e-01 -2.834944e-02 7.877136e-02 1.892285e-05 -3.212406e-03 9.066792e-05
9.5007495748623 1.560593e-01 -3.282732e-02 8.931335e-02 1.560862e-01 -2.958470e-02 8.930691e-02 -2.687200e-05 -3.242616e-03 6.436498e-06
9.5996431307585 1.754874e-01 -3.596284e-02 1.151291e-01 1.754883e-01 -3.285991e-02 1.151013e-01 -8.475022e-07 -3.102936e-03 2.779122e-05
9.6995547700276 1.937684e-01 -3.902472e-02 1.390682e-01 1.937173e-01 -3.613931e-02 1.389838e-01 5.114358e-05 -2.885414e-03 8.447881e-05
9.800369949118 2.108919e-01 -4.202130e-02 1.616411e-01 2.107626e-01 -3.942567e-02 1.614607e-01 1.293150e-04 -2.595628e-03 1.803506e-04
9.9004819520364 2.281153e-01 -4.512135e-02 1.848874e-01 2.278977e-01 -4.285041e-02 1.846003e-01 2.176017e-04 -2.270935e-03 2.871722e-04
9.99989731262127 2.460412e-01 -4.838895e-02 2.092384e-01 2.457214e-01 -4.647873e-02 2.088258e-01 3.197767e-04 -1.910219e-03 4.126626e-04
10.1001709315705 2.592507e-01 -5.095831e-02 2.273064e-01 2.588591e-01 -4.931957e-02 2.268022e-01 3.916354e-04 -1.638741e-03 5.042139e-04
10.1998305890023 2.587891e-01 -5.154779e-02 2.259929e-01 2.583856e-01 -4.989593e-02 2.254636e-01 4.035860e-04 -1.651854e-03 5.292917e-04
10.3006805790398 2.328410e-01 -4.863098e-02 1.893466e-01 2.325362e-01 -4.650458e-02 1.889199e-01 3.048335e-04 -2.126395e-03 4.266534e-04
10.4002804061744 1.854362e-01 -4.342839e-02 1.237968e-01 1.853817e-01 -4.027015e-02 1.236607e-01 5.448431e-05 -3.158242e-03 1.360970e-04
10.4994216278322 1.664576e-01 -4.374456e-02 1.017850e-01 1.667044e-01 -3.954724e-02 1.020291e-01 -2.468345e-04 -4.197320e-03 -2.441672e-04
10.5999937171271 1.764316e-01 -4.650494e-02 1.180011e-01 1.767611e-01 -4.194703e-02 1.183181e-01 -3.295332e-04 -4.557914e-03 -3.169831e-04
10.7001846234422 1.929395e-01 -4.787531e-02 1.372720e-01 1.932257e-01 -4.359870e-02 1.375446e-01 -2.861876e-04 -4.276608e-03 -2.725757e-04
10.7994128082487 2.392875e-01 -5.431335e-02 1.988663e-01 2.393807e-01 -5.089194e-02 1.989175e-01 -9.316760e-05 -3.421404e-03 -5.123080e-05
10.8999827647391 2.717527e-01 -5.939636e-02 2.425555e-01 2.716302e-01 -5.667933e-02 2.423338e-01 1.225056e-04 -2.717027e-03 2.217105e-04
10.999750060686463 2.914494e-01 -6.245560e-02 2.694096e-01 2.912127e-01 -6.011215e-02 2.690589e-01 2.367060e-04 -2.343450e-03 3.506623e-04
11.100112484311135 3.152126e-01 -6.642661e-02 3.026276e-01 3.148904e-01 -6.434862e-02 3.021867e-01 3.221974e-04 -2.077990e-03 4.409207e-04
11.199368945415626 3.391386e-01 -7.064548e-02 3.350806e-01 3.387585e-01 -6.875201e-02 3.345897e-01 3.801818e-04 -1.893472e-03 4.909131e-04
11.300537617932591 3.592458e-01 -7.370702e-02 3.595093e-01 3.588250e-01 -7.194345e-02 3.589917e-01 4.208230e-04 -1.763574e-03 5.176009e-04
11.400501695688851 3.615342e-01 -7.232998e-02 3.563590e-01 3.610897e-01 -7.063445e-02 3.558367e-01 4.445196e-04 -1.695536e-03 5.222210e-04
11.499318652148856 3.397685e-01 -6.594681e-02 3.217253e-01 3.393202e-01 -6.427084e-02 3.212174e-01 4.483866e-04 -1.675966e-03 5.079105e-04
11.600170172582095 3.098343e-01 -5.929492e-02 2.806125e-01 3.093892e-01 -5.764565e-02 2.801117e-01 4.450513e-04 -1.649268e-03 5.007576e-04
11.700584696271813 2.734382e-01 -5.420022e-02 2.352158e-01 2.730419e-01 -5.240249e-02 2.347536e-01 3.962627e-04 -1.797730e-03 4.621604e-04
11.799982340228224 2.187267e-01 -4.858721e-02 1.662674e-01 2.185225e-01 -4.608352e-02 1.660157e-01 2.041744e-04 -2.503691e-03 2.516985e-04
11.899464450705413 1.666096e-01 -4.625770e-02 1.015993e-01 1.667758e-01 -4.228333e-02 1.017625e-01 -1.662055e-04 -3.974373e-03 -1.632193e-04
11.999830590719549 1.841197e-01 -5.527021e-02 1.335131e-01 1.846229e-01 -4.996639e-02 1.340605e-01 -5.032244e-04 -5.303819e-03 -5.473842e-04
12.100689617660375 2.202218e-01 -6.126813e-02 1.780136e-01 2.207630e-01 -5.566717e-02 1.785832e-01 -5.412525e-04 -5.600958e-03 -5.695980e-04
12.199310371468982 2.444526e-01 -6.110215e-02 1.962601e-01 2.448864e-01 -5.595540e-02 1.967178e-01 -4.337785e-04 -5.146747e-03 -4.577157e-04
12.299278536217621 2.781465e-01 -6.296438e-02 2.322544e-01 2.783753e-01 -5.868222e-02 2.324957e-01 -2.287709e-04 -4.282159e-03 -2.413217e-04
12.399627586375734 2.984967e-01 -6.369763e-02 2.554260e-01 2.985075e-01 -6.016203e-02 2.554173e-01 -1.083078e-05 -3.535595e-03 8.645724e-06
12.499960301474811 3.125101e-01 -6.402211e-02 2.724503e-01 3.123710e-01 -6.098142e-02 2.722784e-01 1.390786e-04 -3.040691e-03 1.719017e-04
12.600223105935305 3.167813e-01 -6.273871e-02 2.770459e-01 3.165658e-01 -5.997687e-02 2.768034e-01 2.155910e-04 -2.761839e-03 2.424709e-04
12.700470020439424 3.088398e-01 -5.897270e-02 2.663917e-01 3.085864e-01 -5.640461e-02 2.661272e-01 2.533223e-04 -2.568089e-03 2.645440e-04
12.799366174058591 2.916989e-01 -5.412365e-02 2.451733e-01 2.914040e-01 -5.174111e-02 2.448701e-01 2.948477e-04 -2.382544e-03 3.031230e-04
12.900267204926971 2.757527e-01 -5.159474e-02 2.282827e-01 2.754001e-01 -4.944114e-02 2.278963e-01 3.525968e-04 -2.153594e-03 3.864361e-04
12.999549359897713 2.500780e-01 -4.942984e-02 1.995112e-01 2.497071e-01 -4.728329e-02 1.990590e-01 3.709549e-04 -2.146548e-03 4.522482e-04
13.099661478082352 2.028918e-01 -4.560076e-02 1.392463e-01 2.026851e-01 -4.284590e-02 1.389538e-01 2.067277e-04 -2.754864e-03 2.924861e-04
13.200178189623113 1.605551e-01 -4.453119e-02 8.558052e-02 1.607145e-01 -4.041479e-02 8.570906e-02 -1.593588e-04 -4.116405e-03 -1.285393e-04
13.300122360576349 1.840599e-01 -5.346193e-02 1.229447e-01 1.844791e-01 -4.811298e-02 1.233481e-01 -4.192488e-04 -5.348948e-03 -4.034544e-04
13.400133630028892 2.220467e-01 -5.958237e-02 1.697444e-01 2.225184e-01 -5.401476e-02 1.702117e-01 -4.717925e-04 -5.567616e-03 -4.673535e-04
13.499412394644841 2.450265e-01 -5.963366e-02 1.882187e-01 2.454206e-01 -5.444061e-02 1.886167e-01 -3.941057e-04 -5.193053e-03 -3.979588e-04
13.599833280836329 2.655982e-01 -5.927855e-02 2.055701e-01 2.658459e-01 -5.463966e-02 2.058200e-01 -2.476840e-04 -4.638891e-03 -2.498820e-04
13.700635025642255 2.847535e-01 -5.951067e-02 2.257925e-01 2.848720e-01 -5.544401e-02 2.259369e-01 -1.184868e-04 -4.066664e-03 -1.444674e-04
13.799876819145975 2.923879e-01 -5.797745e-02 2.335626e-01 2.923981e-01 -5.436055e-02 2.336097e-01 -1.019106e-05 -3.616902e-03 -4.706137e-05
13.900446043783768 2.852735e-01 -5.380613e-02 2.246095e-01 2.851899e-01 -5.051057e-02 2.245646e-01 8.356536e-05 -3.295561e-03 4.496137e-05
13.999409034046591 2.721968e-01 -4.944737e-02 2.107249e-01 2.720399e-01 -4.648187e-02 2.106046e-01 1.568505e-04 -2.965505e-03 1.203914e-04
14.100149176430321 2.655800e-01 -4.849834e-02 2.094075e-01 2.653331e-01 -4.592741e-02 2.091658e-01 2.469196e-04 -2.570933e-03 2.417380e-04
14.200487947826192 2.640378e-01 -5.050669e-02 2.146972e-01 2.636906e-01 -4.824812e-02 2.142944e-01 3.472248e-04 -2.258573e-03 4.027781e-04
14.299800069581607 2.451155e-01 -5.050796e-02 1.943815e-01 2.447705e-01 -4.820353e-02 1.939274e-01 3.450842e-04 -2.304429e-03 4.540940e-04
14.400391316955934 1.988039e-01 -4.732693e-02 1.344459e-01 1.986652e-01 -4.424146e-02 1.342062e-01 1.387422e-04 -3.085473e-03 2.396742e-04
14.500134734420099 1.724929e-01 -4.935739e-02 1.045262e-01 1.727102e-01 -4.480454e-02 1.046892e-01 -2.173430e-04 -4.552846e-03 -1.629044e-04
14.600342911532016 2.060816e-01 -5.888032e-02 1.541529e-01 2.065433e-01 -5.333163e-02 1.545917e-01 -4.617037e-04 -5.548682e-03 -4.388683e-04
14.70069443741995 2.350428e-01 -6.190024e-02 1.843653e-01 2.355140e-01 -5.637262e-02 1.848242e-01 -4.712037e-04 -5.527617e-03 -4.589155e-04
14.800094522302393 2.557842e-01 -6.097201e-02 1.987967e-01 2.561313e-01 -5.598631e-02 1.991326e-01 -3.470432e-04 -4.985697e-03 -3.359154e-04
14.900462080653698 2.741773e-01 -6.012843e-02 2.147019e-01 2.743588e-01 -5.576300e-02 2.148731e-01 -1.815098e-04 -4.365426e-03 -1.711463e-04
14.999504634612776 2.811661e-01 -5.794762e-02 2.193661e-01 2.812322e-01 -5.400116e-02 2.194421e-01 -6.606589e-05 -3.946460e-03 -7.605537e-05
15.099967172843572 2.788921e-01 -5.454673e-02 2.163005e-01 2.788972e-01 -5.089516e-02 2.163423e-01 -5.043756e-06 -3.651572e-03 -4.184741e-05
15.200227353417899 2.703964e-01 -5.072244e-02 2.088619e-01 2.703381e-01 -4.735923e-02 2.088500e-01 5.832276e-05 -3.363205e-03 1.193056e-05
15.300517778805098 2.654899e-01 -4.916069e-02 2.082939e-01 2.653392e-01 -4.622478e-02 2.081682e-01 1.507548e-04 -2.935909e-03 1.256810e-04
15.400011078082503 2.653147e-01 -5.043742e-02 2.156690e-01 2.650533e-01 -4.792580e-02 2.153834e-01 2.614173e-04 -2.511619e-03 2.856006e-04
15.49953500647444 2.608973e-01 -5.254894e-02 2.164517e-01 2.605514e-01 -5.025206e-02 2.160100e-01 3.458876e-04 -2.296875e-03 4.417351e-04
15.599874886488116 2.307447e-01 -5.125973e-02 1.804790e-01 2.304828e-01 -4.864607e-02 1.800938e-01 2.618455e-04 -2.613660e-03 3.851704e-04
15.700405285086617 1.825451e-01 -4.899230e-02 1.195310e-01 1.825744e-01 -4.522532e-02 1.194724e-01 -2.930228e-05 -3.766980e-03 5.851548e-05
15.800269508381309 1.868139e-01 -5.635077e-02 1.339947e-01 1.872051e-01 -5.104393e-02 1.343408e-01 -3.911904e-04 -5.306840e-03 -3.460763e-04
15.900278102272235 2.202326e-01 -6.370836e-02 1.799945e-01 2.207975e-01 -5.775488e-02 1.805482e-01 -5.648821e-04 -5.953485e-03 -5.536418e-04
16.000160857414464 2.363860e-01 -6.289364e-02 1.888101e-01 2.369097e-01 -5.718350e-02 1.893275e-01 -5.237073e-04 -5.710136e-03 -5.174452e-04
16.1003621459322588 2.574947e-01 -6.151052e-02 2.034080e-01 2.578611e-01 -5.647224e-02 2.037675e-01 -3.664244e-04 -5.038276e-03 -3.594568e-04
16.1996962315175175 2.735749e-01 -6.019953e-02 2.172068e-01 2.737577e-01 -5.582461e-02 2.173801e-01 -1.827727e-04 -4.374917e-03 -1.732680e-04
16.3006112288153844 2.769015e-01 -5.722793e-02 2.177533e-01 2.769704e-01 -5.326372e-02 2.178316e-01 -6.886481e-05 -3.964208e-03 -7.825227e-05
16.3997580605996589 2.728999e-01 -5.369245e-02 2.139583e-01 2.729090e-01 -5.002897e-02 2.139984e-01 -9.080619e-06 -3.663483e-03 -4.017290e-05
16.5002150876520126 2.668713e-01 -5.061935e-02 2.099745e-01 2.667941e-01 -4.731720e-02 2.099248e-01 7.722315e-05 -3.302147e-03 4.969229e-05
16.5993076870976779 2.641857e-01 -4.990833e-02 2.121656e-01 2.640108e-01 -4.706432e-02 2.119927e-01 1.749201e-04 -2.844007e-03 1.729541e-04
16.7007069828766177 2.611371e-01 -5.109464e-02 2.153386e-01 2.608563e-01 -4.861718e-02 2.150011e-01 2.808607e-04 -2.477456e-03 3.375264e-04
16.7993853186030293 2.450981e-01 -5.143133e-02 1.998920e-01 2.447886e-01 -4.898831e-02 1.994688e-01 3.094869e-04 -2.443025e-03 4.232755e-04
16.900645456902005 2.010782e-01 -4.859552e-02 1.449806e-01 2.009383e-01 -4.551081e-02 1.447249e-01 1.398636e-04 -3.084710e-03 2.556895e-04
16.9994284009936933 1.657655e-01 -4.920861e-02 1.037530e-01 1.659575e-01 -4.474623e-02 1.038686e-01 -1.919627e-04 -4.462382e-03 -1.155204e-04
17.1006381608337605 1.887698e-01 -5.844816e-02 1.430591e-01 1.892601e-01 -5.273269e-02 1.435066e-01 -4.903714e-04 -5.715466e-03 -4.474851e-04
17.1995221371472944 2.154480e-01 -6.247205e-02 1.744714e-01 2.160181e-01 -5.651719e-02 1.750168e-01 -5.701013e-04 -5.954864e-03 -5.453190e-04
17.2995424879419026 2.334747e-01 -6.114299e-02 1.839970e-01 2.339597e-01 -5.561718e-02 1.844605e-01 -4.850381e-04 -5.525809e-03 -4.635237e-04
17.4002972718066076 2.624274e-01 -6.155100e-02 2.114423e-01 2.627301e-01 -5.679442e-02 2.117230e-01 -3.027515e-04 -4.756577e-03 -2.806929e-04
17.4998335238596034 2.774035e-01 -6.044974e-02 2.248912e-01 2.775228e-01 -5.632333e-02 2.249855e-01 -1.192443e-04 -4.126411e-03 -9.430598e-05
17.6007574946171985 2.790827e-01 -5.733674e-02 2.238339e-01 2.791027e-01 -5.358137e-02 2.238478e-01 -2.003700e-05 -3.755371e-03 -1.391128e-05
17.6998357820602763 2.732500e-01 -5.345071e-02 2.169339e-01 2.731988e-01 -4.995897e-02 2.168913e-01 5.118149e-05 -3.491735e-03 4.261641e-05
17.8002156409005927 2.640041e-01 -4.980197e-02 2.086284e-01 2.638888e-01 -4.665221e-02 2.085262e-01 1.152442e-04 -3.149760e-03 1.022387e-04
17.8992768580195047 2.583787e-01 -4.873878e-02 2.068238e-01 2.581709e-01 -4.598701e-02 2.066020e-01 2.077206e-04 -2.751772e-03 2.217931e-04
18.000733647238949 2.504406e-01 -4.934198e-02 2.029607e-01 2.501473e-01 -4.687471e-02 2.025955e-01 2.932670e-04 -2.467265e-03 3.652008e-04
18.0996165740682677 2.244895e-01 -4.816620e-02 1.733126e-01 2.242196e-01 -4.557434e-02 1.729299e-01 2.699268e-04 -2.591859e-03 3.827292e-04
18.1998403693670632 1.741749e-01 -4.452751e-02 1.094305e-01 1.741264e-01 -4.112389e-02 1.092857e-01 4.849548e-05 -3.403626e-03 1.447848e-04
18.2993175994261463 1.519082e-01 -4.702613e-02 8.590502e-02 1.521714e-01 -4.226913e-02 8.609453e-02 -2.632001e-04 -4.757001e-03 -1.895141e-04
18.3998081671020088 1.812450e-01 -5.552320e-02 1.300203e-01 1.817183e-01 -4.990228e-02 1.304401e-01 -4.732695e-04 -5.620918e-03 -4.197456e-04
18.4997158232751389 2.107124e-01 -5.893395e-02 1.620237e-01 2.112013e-01 -5.332509e-02 1.624677e-01 -4.888679e-04 -5.608866e-03 -4.439518e-04
