# Moment      
# CofR        : (0.000000e+00 0.000000e+00 0.000000e+00)
#
# Time        	total_x total_y total_z	pressure_x pressure_y pressure_z	viscous_x viscous_y viscous_z
0.100294       -2.626333e-02 -8.170629e-02 -1.044382e-02 -2.774407e-02 -9.455354e-03 -1.263930e-02 1.480736e-03 -7.225094e-02 2.195477e-03
0.199919       -2.826214e-02 -5.854452e-02 -1.257206e-02 -2.896549e-02 -8.043234e-03 -1.394194e-02 7.033502e-04 -5.050128e-02 1.369882e-03
0.300617       -3.000543e-02 -4.945775e-02 -1.411508e-02 -3.041943e-02 -7.802489e-03 -1.518118e-02 4.139918e-04 -4.165527e-02 1.066095e-03
0.399542       -3.131653e-02 -4.462324e-02 -1.511310e-02 -3.156605e-02 -7.842725e-03 -1.601201e-02 2.495271e-04 -3.678052e-02 8.989037e-04
0.500761       -3.253238e-02 -4.151596e-02 -1.603600e-02 -3.266506e-02 -7.981404e-03 -1.682117e-02 1.326798e-04 -3.353456e-02 7.851677e-04
0.599855       -3.360344e-02 -3.944353e-02 -1.684606e-02 -3.364986e-02 -8.152415e-03 -1.754964e-02 4.641960e-05 -3.129111e-02 7.035789e-04
0.701074       -3.455014e-02 -3.792240e-02 -1.753477e-02 -3.452773e-02 -8.335638e-03 -1.817494e-02 -2.240263e-05 -2.958677e-02 6.401647e-04
0.800075       -3.533898e-02 -3.681546e-02 -1.808234e-02 -3.526045e-02 -8.511871e-03 -1.867162e-02 -7.852530e-05 -2.830358e-02 5.892857e-04
0.898995       -3.601145e-02 -3.596809e-02 -1.852302e-02 -3.588541e-02 -8.679789e-03 -1.906989e-02 -1.260374e-04 -2.728830e-02 5.468718e-04
0.999969       -3.661794e-02 -3.529617e-02 -1.891769e-02 -3.645079e-02 -8.842792e-03 -1.942847e-02 -1.671482e-04 -2.645338e-02 5.107807e-04
1.10084        -3.717537e-02 -3.477153e-02 -1.930278e-02 -3.697336e-02 -8.996473e-03 -1.978336e-02 -2.020124e-04 -2.577506e-02 4.805824e-04
1.19947        -3.768878e-02 -3.436830e-02 -1.968874e-02 -3.745698e-02 -9.135240e-03 -2.014343e-02 -2.317956e-04 -2.523306e-02 4.546920e-04
1.30013        -3.815552e-02 -3.404334e-02 -2.005597e-02 -3.789700e-02 -9.260011e-03 -2.048705e-02 -2.585154e-04 -2.478333e-02 4.310837e-04
1.4007         -3.855850e-02 -3.378515e-02 -2.037102e-02 -3.827657e-02 -9.363419e-03 -2.078082e-02 -2.819356e-04 -2.442173e-02 4.098027e-04
1.49904        -3.883209e-02 -3.357890e-02 -2.054865e-02 -3.852991e-02 -9.440998e-03 -2.093943e-02 -3.021708e-04 -2.413790e-02 3.907710e-04
1.59942        -3.896521e-02 -3.340145e-02 -2.056719e-02 -3.864509e-02 -9.496790e-03 -2.094057e-02 -3.201221e-04 -2.390466e-02 3.733782e-04
1.69971        -3.897178e-02 -3.324849e-02 -2.044657e-02 -3.863653e-02 -9.532945e-03 -2.080501e-02 -3.352565e-04 -2.371555e-02 3.584400e-04
1.79992        -3.888205e-02 -3.311382e-02 -2.022730e-02 -3.853411e-02 -9.554038e-03 -2.057286e-02 -3.479396e-04 -2.355978e-02 3.455601e-04
1.90006        -3.873238e-02 -3.299413e-02 -1.995653e-02 -3.837386e-02 -9.564831e-03 -2.029093e-02 -3.585260e-04 -2.342929e-02 3.343998e-04
2.000144       -3.854995e-02 -3.288714e-02 -1.966877e-02 -3.818252e-02 -9.568804e-03 -1.999329e-02 -3.674317e-04 -2.331834e-02 3.245153e-04
2.100166       -3.835454e-02 -3.279178e-02 -1.938639e-02 -3.797952e-02 -9.568868e-03 -1.970193e-02 -3.750168e-04 -2.322291e-02 3.155314e-04
2.200138       -3.815264e-02 -3.270663e-02 -1.911507e-02 -3.777113e-02 -9.566461e-03 -1.942234e-02 -3.815152e-04 -2.314017e-02 3.072698e-04
2.300066       -3.794973e-02 -3.263052e-02 -1.885758e-02 -3.756261e-02 -9.562539e-03 -1.915717e-02 -3.871160e-04 -2.306798e-02 2.995943e-04
2.399954       -3.774285e-02 -3.256229e-02 -1.860826e-02 -3.735093e-02 -9.557587e-03 -1.890072e-02 -3.919240e-04 -2.300470e-02 2.924592e-04
2.499807       -3.753118e-02 -3.250105e-02 -1.836385e-02 -3.713514e-02 -9.551981e-03 -1.864967e-02 -3.960408e-04 -2.294907e-02 2.858181e-04
2.59963        -3.731625e-02 -3.244605e-02 -1.812474e-02 -3.691673e-02 -9.546034e-03 -1.840441e-02 -3.995198e-04 -2.290002e-02 2.796710e-04
2.699424       -3.709966e-02 -3.239656e-02 -1.789141e-02 -3.669726e-02 -9.539901e-03 -1.816543e-02 -4.024042e-04 -2.285666e-02 2.740246e-04
2.799195       -3.687893e-02 -3.235194e-02 -1.766029e-02 -3.647417e-02 -9.533659e-03 -1.792912e-02 -4.047603e-04 -2.281828e-02 2.688394e-04
2.898945       -3.666132e-02 -3.231188e-02 -1.743823e-02 -3.625467e-02 -9.527631e-03 -1.770231e-02 -4.066505e-04 -2.278425e-02 2.640760e-04
3.0007978      -3.643910e-02 -3.227502e-02 -1.721626e-02 -3.603092e-02 -9.521565e-03 -1.747586e-02 -4.081726e-04 -2.275345e-02 2.595980e-04
3.1005132      -3.622287e-02 -3.224243e-02 -1.700429e-02 -3.581356e-02 -9.515736e-03 -1.725985e-02 -4.093060e-04 -2.272670e-02 2.555659e-04
3.2002154      -3.600862e-02 -3.221301e-02 -1.679771e-02 -3.559850e-02 -9.510094e-03 -1.704957e-02 -4.101252e-04 -2.270292e-02 2.518597e-04
3.2999067      -3.579674e-02 -3.218635e-02 -1.659640e-02 -3.538607e-02 -9.504590e-03 -1.684486e-02 -4.106659e-04 -2.268176e-02 2.484587e-04
3.3995893      -3.558890e-02 -3.216217e-02 -1.640188e-02 -3.517795e-02 -9.499258e-03 -1.664722e-02 -4.109567e-04 -2.266292e-02 2.453398e-04
3.4992655      -3.538486e-02 -3.214017e-02 -1.621342e-02 -3.497382e-02 -9.494066e-03 -1.645590e-02 -4.110320e-04 -2.264610e-02 2.424808e-04
3.6010579      -3.518101e-02 -3.211966e-02 -1.602753e-02 -3.477010e-02 -9.488891e-03 -1.626734e-02 -4.109154e-04 -2.263077e-02 2.398098e-04
3.7007274      -3.498728e-02 -3.210122e-02 -1.585329e-02 -3.457664e-02 -9.483909e-03 -1.609071e-02 -4.106326e-04 -2.261731e-02 2.374193e-04
3.8003967      -3.479846e-02 -3.208421e-02 -1.568540e-02 -3.438825e-02 -9.479004e-03 -1.592063e-02 -4.102125e-04 -2.260520e-02 2.352300e-04
3.900068       -3.461545e-02 -3.206836e-02 -1.552449e-02 -3.420578e-02 -9.474106e-03 -1.575771e-02 -4.096736e-04 -2.259426e-02 2.332275e-04
3.99974342     -3.443859e-02 -3.205354e-02 -1.537052e-02 -3.402955e-02 -9.469238e-03 -1.560192e-02 -4.090411e-04 -2.258430e-02 2.313964e-04
4.09942497     -3.426960e-02 -3.203958e-02 -1.522481e-02 -3.386125e-02 -9.464389e-03 -1.545453e-02 -4.083430e-04 -2.257519e-02 2.297219e-04
4.19911466     -3.410686e-02 -3.202624e-02 -1.508535e-02 -3.369926e-02 -9.459472e-03 -1.531354e-02 -4.076028e-04 -2.256677e-02 2.281908e-04
4.30093582     -3.394833e-02 -3.201313e-02 -1.495035e-02 -3.354150e-02 -9.454382e-03 -1.517711e-02 -4.068267e-04 -2.255875e-02 2.267576e-04
4.40064795     -3.380037e-02 -3.200062e-02 -1.482535e-02 -3.339432e-02 -9.449291e-03 -1.505082e-02 -4.060509e-04 -2.255133e-02 2.254706e-04
4.50037442     -3.365708e-02 -3.198823e-02 -1.470537e-02 -3.325183e-02 -9.444008e-03 -1.492966e-02 -4.052463e-04 -2.254422e-02 2.242893e-04
4.60011779     -3.351733e-02 -3.197588e-02 -1.459015e-02 -3.311295e-02 -9.438536e-03 -1.481337e-02 -4.043783e-04 -2.253734e-02 2.232153e-04
4.69988093     -3.337963e-02 -3.196354e-02 -1.447906e-02 -3.297622e-02 -9.432907e-03 -1.470130e-02 -4.034086e-04 -2.253064e-02 2.222452e-04
4.79966681     -3.324273e-02 -3.195123e-02 -1.437151e-02 -3.284043e-02 -9.427159e-03 -1.459290e-02 -4.023020e-04 -2.252407e-02 2.213852e-04
4.89947817     -3.310488e-02 -3.193892e-02 -1.426581e-02 -3.270384e-02 -9.421266e-03 -1.448645e-02 -4.010467e-04 -2.251765e-02 2.206368e-04
4.99931711     -3.296677e-02 -3.192676e-02 -1.416242e-02 -3.256712e-02 -9.415370e-03 -1.438242e-02 -3.996519e-04 -2.251139e-02 2.199995e-04
5.09918483     -3.282997e-02 -3.191497e-02 -1.406204e-02 -3.243182e-02 -9.409641e-03 -1.428151e-02 -3.981473e-04 -2.250533e-02 2.194683e-04
5.19908149     -3.269528e-02 -3.190358e-02 -1.396471e-02 -3.229871e-02 -9.404079e-03 -1.418375e-02 -3.965682e-04 -2.249950e-02 2.190372e-04
5.29900637     -3.256440e-02 -3.189279e-02 -1.387123e-02 -3.216945e-02 -9.398842e-03 -1.408992e-02 -3.949511e-04 -2.249395e-02 2.186965e-04
5.39895805     -3.243818e-02 -3.188269e-02 -1.378181e-02 -3.204486e-02 -9.394006e-03 -1.400025e-02 -3.933202e-04 -2.248868e-02 2.184404e-04
5.50106219     -3.231365e-02 -3.187310e-02 -1.369392e-02 -3.192199e-02 -9.389484e-03 -1.391218e-02 -3.916562e-04 -2.248362e-02 2.182588e-04
5.60106253     -3.219689e-02 -3.186451e-02 -1.361190e-02 -3.180686e-02 -9.385527e-03 -1.383006e-02 -3.900385e-04 -2.247898e-02 2.181516e-04
5.69895583     -3.208723e-02 -3.185683e-02 -1.353524e-02 -3.169876e-02 -9.382085e-03 -1.375336e-02 -3.884655e-04 -2.247475e-02 2.181102e-04
5.79899665     -3.197953e-02 -3.184978e-02 -1.346034e-02 -3.159266e-02 -9.379033e-03 -1.367847e-02 -3.868703e-04 -2.247074e-02 2.181268e-04
5.89905557     -3.187681e-02 -3.184347e-02 -1.338958e-02 -3.149152e-02 -9.376409e-03 -1.360778e-02 -3.852895e-04 -2.246706e-02 2.181968e-04
5.9991312      -3.177847e-02 -3.183788e-02 -1.332247e-02 -3.139475e-02 -9.374177e-03 -1.354079e-02 -3.837245e-04 -2.246370e-02 2.183146e-04
6.09922227     -3.168475e-02 -3.183300e-02 -1.325932e-02 -3.130257e-02 -9.372333e-03 -1.347779e-02 -3.821786e-04 -2.246066e-02 2.184735e-04
6.1993276      -3.159590e-02 -3.182876e-02 -1.320038e-02 -3.121524e-02 -9.370806e-03 -1.341904e-02 -3.806557e-04 -2.245795e-02 2.186673e-04
6.29944607     -3.151144e-02 -3.182513e-02 -1.314513e-02 -3.113228e-02 -9.369560e-03 -1.336402e-02 -3.791603e-04 -2.245557e-02 2.188900e-04
6.39957663     -3.143141e-02 -3.182205e-02 -1.309355e-02 -3.105372e-02 -9.368548e-03 -1.331269e-02 -3.776958e-04 -2.245350e-02 2.191371e-04
6.49971828     -3.135524e-02 -3.181949e-02 -1.304504e-02 -3.097898e-02 -9.367737e-03 -1.326444e-02 -3.762629e-04 -2.245175e-02 2.194057e-04
6.59987006     -3.128278e-02 -3.181740e-02 -1.299934e-02 -3.090792e-02 -9.367082e-03 -1.321904e-02 -3.748644e-04 -2.245032e-02 2.196929e-04
6.70003104     -3.121378e-02 -3.181575e-02 -1.295613e-02 -3.084028e-02 -9.366573e-03 -1.317613e-02 -3.735011e-04 -2.244917e-02 2.199965e-04
6.80020037     -3.114801e-02 -3.181447e-02 -1.291516e-02 -3.077583e-02 -9.366154e-03 -1.313548e-02 -3.721738e-04 -2.244831e-02 2.203148e-04
6.90037718     -3.108536e-02 -3.181355e-02 -1.287628e-02 -3.071447e-02 -9.365835e-03 -1.309693e-02 -3.708835e-04 -2.244772e-02 2.206456e-04
7.000560679    -3.102569e-02 -3.181295e-02 -1.283938e-02 -3.065606e-02 -9.365581e-03 -1.306036e-02 -3.696313e-04 -2.244737e-02 2.209866e-04
7.100750081    -3.096900e-02 -3.181266e-02 -1.280443e-02 -3.060058e-02 -9.365406e-03 -1.302577e-02 -3.684181e-04 -2.244725e-02 2.213353e-04
7.200944635    -3.091518e-02 -3.181263e-02 -1.277138e-02 -3.054793e-02 -9.365282e-03 -1.299307e-02 -3.672449e-04 -2.244735e-02 2.216890e-04
7.299011685    -3.086525e-02 -3.181285e-02 -1.274086e-02 -3.049912e-02 -9.365220e-03 -1.296290e-02 -3.661359e-04 -2.244763e-02 2.220378e-04
7.399214332    -3.081708e-02 -3.181333e-02 -1.271161e-02 -3.045204e-02 -9.365232e-03 -1.293400e-02 -3.650436e-04 -2.244809e-02 2.223948e-04
7.49942006     -3.077162e-02 -3.181403e-02 -1.268414e-02 -3.040763e-02 -9.365300e-03 -1.290689e-02 -3.639927e-04 -2.244873e-02 2.227509e-04
7.59962823     -3.072875e-02 -3.181494e-02 -1.265838e-02 -3.036576e-02 -9.365420e-03 -1.288148e-02 -3.629829e-04 -2.244952e-02 2.231049e-04
7.699838226    -3.068845e-02 -3.181606e-02 -1.263433e-02 -3.032644e-02 -9.365600e-03 -1.285779e-02 -3.620137e-04 -2.245046e-02 2.234555e-04
7.800049458    -3.065055e-02 -3.181736e-02 -1.261183e-02 -3.028947e-02 -9.365835e-03 -1.283563e-02 -3.610844e-04 -2.245153e-02 2.238022e-04
7.900261365    -3.061499e-02 -3.181885e-02 -1.259085e-02 -3.025480e-02 -9.366126e-03 -1.281500e-02 -3.601945e-04 -2.245272e-02 2.241439e-04
